# vtk DataFile Version 2.0
vtk output
ASCII
DATASET STRUCTURED_GRID
DIMENSIONS       61      49       1
POINTS     2989 double
   1.0000000000000000        0.0000000000000000        0.0000000000000000     
  0.99726094768413698       -5.4705970797181195E-004   0.0000000000000000     
  0.98907380036690296       -2.1732689536559800E-003   0.0000000000000000     
  0.97552825814757704       -4.8340908203384899E-003   0.0000000000000000     
  0.95677272882130004       -8.4565303179428997E-003   0.0000000000000000     
  0.93301270189221897       -1.2940952255126001E-002   0.0000000000000000     
  0.90450849718747395       -1.8163563200134000E-002   0.0000000000000000     
  0.87157241273869701       -2.3979496337882801E-002   0.0000000000000000     
  0.83456530317942901       -3.0226423163382699E-002   0.0000000000000000     
  0.79389262614623601       -3.6728602957406903E-002   0.0000000000000000     
  0.75000000000000000       -4.3301270189222002E-002   0.0000000000000000     
  0.70336832153789997       -4.9755251649282801E-002   0.0000000000000000     
  0.65450849718747395       -5.5901699437494803E-002   0.0000000000000000     
  0.60395584540888003       -6.1556823059825898E-002   0.0000000000000000     
  0.55226423163382699       -6.6546503888493397E-002   0.0000000000000000     
  0.50000000000000000       -7.0710678118654696E-002   0.0000000000000000     
  0.44773576836617301       -7.3907380036690298E-002   0.0000000000000000     
  0.39604415459112002       -7.6016345761910298E-002   0.0000000000000000     
  0.34549150281252600       -7.6942088429381300E-002   0.0000000000000000     
  0.29663167846209998       -7.6616368780508204E-002   0.0000000000000000     
  0.25000000000000000       -7.4999999999999997E-002   0.0000000000000000     
  0.20610737385376299       -7.2083942016734195E-002   0.0000000000000000     
  0.16543469682057099       -6.7889657968547706E-002   0.0000000000000000     
  0.12842758726130299       -6.2468723686683401E-002   0.0000000000000000     
   9.5491502812526302E-002  -5.5901699437494699E-002   0.0000000000000000     
   6.6987298107780605E-002  -4.8296291314453399E-002   0.0000000000000000     
   4.3227271178699601E-002  -3.9784847155511602E-002   0.0000000000000000     
   2.4471741852423200E-002  -3.0521248238988899E-002   0.0000000000000000     
   1.0926199633097201E-002  -2.0677272882130001E-002   0.0000000000000000     
   2.7390523158633598E-003  -1.0438521064158801E-002   0.0000000000000000     
   0.0000000000000000        0.0000000000000000        0.0000000000000000     
   2.7390523158633598E-003   1.0438521064158801E-002   0.0000000000000000     
   1.0926199633097201E-002   2.0677272882130001E-002   0.0000000000000000     
   2.4471741852423200E-002   3.0521248238988899E-002   0.0000000000000000     
   4.3227271178699601E-002   3.9784847155511602E-002   0.0000000000000000     
   6.6987298107780605E-002   4.8296291314453399E-002   0.0000000000000000     
   9.5491502812526302E-002   5.5901699437494699E-002   0.0000000000000000     
  0.12842758726130299        6.2468723686683401E-002   0.0000000000000000     
  0.16543469682057099        6.7889657968547706E-002   0.0000000000000000     
  0.20610737385376299        7.2083942016734195E-002   0.0000000000000000     
  0.25000000000000000        7.4999999999999997E-002   0.0000000000000000     
  0.29663167846209998        7.6616368780508204E-002   0.0000000000000000     
  0.34549150281252600        7.6942088429381300E-002   0.0000000000000000     
  0.39604415459112002        7.6016345761910298E-002   0.0000000000000000     
  0.44773576836617301        7.3907380036690298E-002   0.0000000000000000     
  0.50000000000000000        7.0710678118654696E-002   0.0000000000000000     
  0.55226423163382699        6.6546503888493397E-002   0.0000000000000000     
  0.60395584540888003        6.1556823059825898E-002   0.0000000000000000     
  0.65450849718747395        5.5901699437494803E-002   0.0000000000000000     
  0.70336832153789997        4.9755251649282801E-002   0.0000000000000000     
  0.75000000000000000        4.3301270189222002E-002   0.0000000000000000     
  0.79389262614623601        3.6728602957406903E-002   0.0000000000000000     
  0.83456530317942901        3.0226423163382699E-002   0.0000000000000000     
  0.87157241273869701        2.3979496337882801E-002   0.0000000000000000     
  0.90450849718747395        1.8163563200134000E-002   0.0000000000000000     
  0.93301270189221897        1.2940952255126001E-002   0.0000000000000000     
  0.95677272882130004        8.4565303179428997E-003   0.0000000000000000     
  0.97552825814757704        4.8340908203384899E-003   0.0000000000000000     
  0.98907380036690296        2.1732689536559800E-003   0.0000000000000000     
  0.99726094768413698        5.4705970797181195E-004   0.0000000000000000     
   1.0000000000000000        0.0000000000000000        0.0000000000000000     
   1.0009232791362399       -2.1684043449710098E-019   0.0000000000000000     
  0.99818422682037300       -3.7341886569199501E-003   0.0000000000000000     
  0.98963921013206202       -6.7066220741222099E-003   0.0000000000000000     
  0.97603284118763201       -9.7487924594295006E-003   0.0000000000000000     
  0.95732907036518999       -1.3433532296074800E-002   0.0000000000000000     
  0.93362247389838304       -1.7911237804386901E-002   0.0000000000000000     
  0.90515014004543803       -2.3121251512194001E-002   0.0000000000000000     
  0.87222615642195200       -2.8928581881350099E-002   0.0000000000000000     
  0.83521582384825199       -3.5170667091454701E-002   0.0000000000000000     
  0.79452771870625005       -4.1670630665104798E-002   0.0000000000000000     
  0.75060934006150704       -4.8242879191763802E-002   0.0000000000000000     
  0.70394268365022095       -5.4697667396047901E-002   0.0000000000000000     
  0.65503926580097704       -6.0845707302111703E-002   0.0000000000000000     
  0.60443468143407897       -6.6502823438903000E-002   0.0000000000000000     
  0.55268281487549098       -7.1494520261680905E-002   0.0000000000000000     
  0.50034979946463698       -7.5660329927799697E-002   0.0000000000000000     
  0.44800780604976498       -7.8857820939911893E-002   0.0000000000000000     
  0.39622873127704800       -8.0966158647333100E-002   0.0000000000000000     
  0.34557784938716202       -8.1889117365649106E-002   0.0000000000000000     
  0.29660748257989600       -8.1557449973058194E-002   0.0000000000000000     
  0.24985073150005699       -7.9930520090950696E-002   0.0000000000000000     
  0.20581528380547001       -7.6997083378185102E-002   0.0000000000000000     
  0.16497727516421701       -7.2775039107258493E-002   0.0000000000000000     
  0.12777509594659200       -6.7309780771745098E-002   0.0000000000000000     
   9.4602913057044505E-002  -6.0670235884221303E-002   0.0000000000000000     
   6.5803714309157907E-002  -5.2940309734867200E-002   0.0000000000000000     
   4.1663334149916298E-002  -4.4200886077683799E-002   0.0000000000000000     
   2.2415788746539999E-002  -3.4497878801185697E-002   0.0000000000000000     
   8.2925871673695407E-003  -2.3819084663797101E-002   0.0000000000000000     
  -3.7633439951901399E-004  -1.2197225319231999E-002   0.0000000000000000     
  -3.2746133109073298E-003   0.0000000000000000        0.0000000000000000     
  -3.7633439951901399E-004   1.2197225319231999E-002   0.0000000000000000     
   8.2925871673695407E-003   2.3819084663797101E-002   0.0000000000000000     
   2.2415788746539999E-002   3.4497878801185697E-002   0.0000000000000000     
   4.1663334149916298E-002   4.4200886077683799E-002   0.0000000000000000     
   6.5803714309157907E-002   5.2940309734867200E-002   0.0000000000000000     
   9.4602913057044505E-002   6.0670235884221303E-002   0.0000000000000000     
  0.12777509594659200        6.7309780771745098E-002   0.0000000000000000     
  0.16497727516421701        7.2775039107258493E-002   0.0000000000000000     
  0.20581528380547001        7.6997083378185102E-002   0.0000000000000000     
  0.24985073150005699        7.9930520090950696E-002   0.0000000000000000     
  0.29660748257989600        8.1557449973058194E-002   0.0000000000000000     
  0.34557784938716202        8.1889117365649106E-002   0.0000000000000000     
  0.39622873127704800        8.0966158647333100E-002   0.0000000000000000     
  0.44800780604976498        7.8857820939911893E-002   0.0000000000000000     
  0.50034979946463698        7.5660329927799697E-002   0.0000000000000000     
  0.55268281487549098        7.1494520261680905E-002   0.0000000000000000     
  0.60443468143407897        6.6502823438903000E-002   0.0000000000000000     
  0.65503926580097704        6.0845707302111703E-002   0.0000000000000000     
  0.70394268365022095        5.4697667396047901E-002   0.0000000000000000     
  0.75060934006150704        4.8242879191763802E-002   0.0000000000000000     
  0.79452771870625005        4.1670630665104798E-002   0.0000000000000000     
  0.83521582384825199        3.5170667091454701E-002   0.0000000000000000     
  0.87222615642195200        2.8928581881350099E-002   0.0000000000000000     
  0.90515014004543803        2.3121251512194001E-002   0.0000000000000000     
  0.93362247389838304        1.7911237804386901E-002   0.0000000000000000     
  0.95732907036518999        1.3433532296074800E-002   0.0000000000000000     
  0.97603284118763201        9.7487924594295006E-003   0.0000000000000000     
  0.98963921013206202        6.7066220741222099E-003   0.0000000000000000     
  0.99818422682037300        3.7341886569199501E-003   0.0000000000000000     
   1.0009232791362399       -4.1684431965420998E-019   0.0000000000000000     
   1.0036421271485501       -1.0842021724855000E-018   0.0000000000000000     
   1.0009030748326899       -6.5125293322647803E-003   0.0000000000000000     
[...]
CELL_DATA     2880
SCALARS rho        double 1
LOOKUP_TABLE default
   1.1050585885156303     
   1.0931439269680652     
   1.0761545675592004     
   1.0566379716296210     
   1.0369507565024183     
   1.0178544237815139     
  0.99951287079793472     
  0.98138867792601803     
  0.96326798357475130     
  0.94503135096200541     
  0.92658875324201739     
  0.90794482609714622     
  0.88930983515719686     
  0.87155707777396529     
  0.85949021210967580     
  0.84786008816905045     
  0.74578502920264822     
  0.68425542236956327     
  0.68827626848623558     
  0.69998181765336298     
  0.71487297675579542     
  0.73351768987680610     
  0.75591585286149188     
  0.78334052170309076     
  0.81681342236404542     
  0.85956341330560126     
  0.91942907443208466     
   1.0010021086206657     
   1.1391953191414661     
   1.2789880586687561     
   1.2789880586596600     
   1.1391953192235800     
   1.0010021087357606     
  0.91942907454206368     
  0.85956341340632580     
  0.81681342245869160     
  0.78334052179297253     
  0.75591585296435637     
  0.73351768996646149     
  0.71487297684065687     
  0.69998181774352386     
  0.68827626853262924     
  0.68425542259553562     
  0.74578503048018219     
  0.84786008837135796     
  0.85949021192929564     
  0.87155707772012958     
  0.88930983514681516     
  0.90794482610027982     
  0.92658875324725964     
  0.94503135096438029     
  0.96326798357221466     
  0.98138867791795770     
  0.99951287077980910     
   1.0178544237563125     
   1.0369507564822626     
   1.0566379716287475     
   1.0761545675762425     
   1.0931439269957710     
   1.1050585885560260     
   1.1206904271372251     
   1.0995346639408403     
   1.0851618487581198     
   1.0682221037231983     
   1.0499722509079612     
   1.0316102789145247     
   1.0138768623285779     
  0.99626445237169481     
  0.97852621892771541     
  0.96060665811479351     
  0.94243281394501355     
  0.92402427600558978     
  0.90560233445918004     
  0.88804226389479446     
  0.87621556725721728     
  0.86497068750385120     
  0.76225857176232137     
  0.69995002039183341     
  0.70481328058410941     
  0.71766076837512838     
  0.73409929246223982     
  0.75450052653350586     
  0.77915980386877448     
  0.80965719132159919     
  0.84771352431831581     
  0.89730998237077264     
  0.96579021739213855     
   1.0536804740098960     
   1.1828779731638535     
   1.2848970211194080     
   1.2848970210942177     
   1.1828779731830694     
   1.0536804740913650     
  0.96579021746642080     
  0.89730998243794391     
  0.84771352438708791     
  0.80965719138671799     
  0.77915980394037820     
  0.75450052659510169     
  0.73409929252868500     
  0.71766076844061111     
  0.70481328058672987     
  0.69995002057605427     
  0.76225857300438538     
  0.86497068765515694     
  0.87621556703405545     
  0.88804226379860729     
  0.90560233440358939     
  0.92402427596281078     
  0.94243281390441347     
  0.96060665807126933     
  0.97852621887894498     
  0.99626445231701788     
   1.0138768622610257     
   1.0316102788496788     
   1.0499722508783076     
   1.0682221037005111     
   1.0851618487481138     
   1.0995346639389283     
   1.1206904271497060     
   1.1087434933084941     
   1.1047032108797092     
   1.0938681247074336     
   1.0775175384667230     
   1.0595898373490664     
   1.0414332989986683     
   1.0234308164508974     
   1.0054836600178803     
  0.98736424738666817     
  0.96907539576721524     
  0.95056400158286791     
  0.93185501549838334     
  0.91317478700823074     
  0.89540753478771828     
  0.88345294078231074     
  0.87218107745218010     
  0.76957345458509008     
  0.70725598066746109     
  0.71226948514575505     
  0.72539501987050592     
  0.74223738016666352     
  0.76332608383676115     
  0.78903848931288756     
  0.82109845302787454     
  0.86125564357549722     
  0.91438653017373162     
  0.98674341020967682     
   1.0790975536904055     
   1.1959231368267251     
   1.2760260668847159     
   1.2760260668554400     
   1.1959231368275400     
   1.0790975537633933     
  0.98674341028609991     
  0.91438653025370364     
  0.86125564364049212     
  0.82109845306874629     
  0.78903848936017440     
  0.76332608389121914     
  0.74223738021768593     
  0.72539501992907374     
  0.71226948516066202     
  0.70725598084634733     
  0.76957345583058068     
  0.87218107759668528     
  0.88345294054356316     
  0.89540753469338696     
  0.91317478696155230     
  0.93185501546633953     
  0.95056400155311294     
  0.96907539573393919     
  0.98736424734674366     
   1.0054836599691750     
   1.0234308163868655     
   1.0414332989387773     
   1.0595898373056132     
   1.0775175384355866     
   1.0938681246837612     
   1.1047032108617230     
   1.1087434933242706     
   1.1008167342022022     
   1.1082339814794997     
   1.0973303360614368     
   1.0801088330513846     
   1.0617833219050572     
   1.0434782923978041     
   1.0252836233466420     
   1.0074155761646710     
  0.98934384693871202     
  0.97110959626456317     
  0.95266700782519420     
  0.93404898845245332     
  0.91549088546546820     
  0.89788203446175430     
  0.88604846848872543     
  0.87479688764055075     
  0.77334964882246804     
  0.71136795466770331     
  0.71664787140874286     
  0.73025353503392865     
  0.74772426119251700     
  0.76963545479210838     
  0.79651226857057089     
  0.83014407581613270     
  0.87288951061221509     
  0.92900647443797624     
   1.0026838458418879     
   1.0970507425355454     
   1.1977933048269591     
   1.2604339256037513     
   1.2604339255728343     
   1.1977933048112674     
   1.0970507425868954     
   1.0026838459077039     
  0.92900647450735552     
  0.87288951067938558     
  0.83014407587513228     
  0.79651226860880509     
  0.76963545485298002     
  0.74772426124819824     
  0.73025353509977498     
  0.71664787142801734     
  0.71136795487536120     
  0.77334965006299294     
  0.87479688780200804     
  0.88604846827332395     
  0.89788203436430269     
  0.91549088541448853     
  0.93404898841623141     
  0.95266700779156088     
  0.97110959622799264     
  0.98934384689712984     
   1.0074155761152850     
   1.0252836232823823     
   1.0434782923407926     
   1.0617833218539907     
   1.0801088330081188     
   1.0973303360258404     
   1.1082339814480211     
   1.1008167342183364     
   1.0948003731066474     
   1.1066104209902594     
   1.0954211160091327     
   1.0787219881435790     
   1.0611547210147860     
   1.0434986756070812     
   1.0256835335349395     
   1.0081854200041731     
  0.99039298839319301     
  0.97238415877478590     
  0.95414670009157954     
  0.93572732048103502     
  0.91737274770667310     
  0.89997316051625997     
  0.88821877620981848     
  0.87690729219159835     
  0.77720496644735537     
  0.71555717960720977     
  0.72104947643695927     
  0.73515779455359653     
  0.75330440927894515     
  0.77609554242165435     
  0.80411678987965529     
  0.83936858378617751     
  0.88428619084894922     
  0.94281571971159461     
   1.0154933371029702     
   1.1083498603215829     
   1.1932107967045187     
   1.2435291397054327     
   1.2435291396743251     
   1.1932107966799579     
   1.1083498603492681     
   1.0154933371620642     
  0.94281571977376000     
  0.88428619091558025     
  0.83936858384784763     
  0.80411678992224367     
  0.77609554248383239     
  0.75330440933713794     
  0.73515779462363207     
  0.72104947646140072     
  0.71555717983789435     
  0.77720496766877833     
  0.87690729235187448     
  0.88821877601039312     
  0.89997316042584208     
  0.91737274766150734     
  0.93572732044944140     
  0.95414670006165581     
  0.97238415874097062     
  0.99039298835387379     
   1.0081854199546099     
   1.0256835334732235     
   1.0434986755551230     
   1.0611547209649639     
   1.0787219880972587     
   1.0954211159685259     
   1.1066104209580552     
   1.0948003731186553     
   1.0898410805873755     
   1.1032241026048204     
   1.0923693779128945     
   1.0767951388869135     
   1.0601964306252667     
   1.0432862802086098     
   1.0260093020759504     
   1.0088744319980378     
  0.99143250402083394     
  0.97369080338656311     
  0.95569136210222627     
  0.93749653788869980     
  0.91936868975937736     
  0.90220269182723123     
  0.89048368786317023     
  0.87898415054477341     
  0.78166577932377379     
  0.72034274345207638     
  0.72597703054740537     
  0.74060635016564724     
  0.75946257220299707     
  0.78319239340800573     
  0.81238234687624877     
  0.84920944622207062     
  0.89609892050114504     
  0.95632561095694257     
   1.0268019493741483     
   1.1149133432592484     
   1.1861280322105066     
   1.2267619125047193     
   1.2267619124734224     
   1.1861280321806165     
   1.1149133432683365     
   1.0268019494288321     
  0.95632561101329550     
  0.89609892056376372     
  0.84920944628525630     
  0.81238234692689582     
  0.78319239345573100     
  0.75946257226027702     
  0.74060635023601051     
  0.72597703057332108     
  0.72034274369483653     
  0.78166578052028635     
  0.87898415069268565     
  0.89048368768201591     
  0.90220269174127865     
  0.91936868971763008     
  0.93749653785975251     
  0.95569136207439465     
  0.97369080335417191     
  0.99143250398283056     
   1.0088744319458489     
   1.0260093020178136     
   1.0432862801596494     
   1.0601964305770311     
   1.0767951388413988     
   1.0923693778727750     
   1.1032241025724012     
   1.0898410805940799     
   1.0853393272011678     
   1.0988965676395310     
   1.0887949480684331     
   1.0746182291505630     
   1.0590475325757951     
   1.0428855648807194     
   1.0262341400459425     
   1.0093844450742082     
  0.99232318357607885     
  0.97486023371342589     
  0.95711343543497629     
  0.93915944529376139     
  0.92127809760859092     
  0.90437076332590749     
  0.89263029582256825     
  0.88079499796251914     
  0.78663428144333702     
  0.72569233848343329     
  0.73135860995222479     
  0.74651570533947187     
  0.76609859156993321     
  0.79078462629732604     
  0.82115872655988509     
  0.85949876573323825     
  0.90805966664768112     
  0.96879072103497810     
   1.0373204785631904     
   1.1178494100519296     
   1.1775085592877650     
   1.2106078560234226     
   1.2106078559918281     
   1.1775085592541938     
   1.1178494100488585     
   1.0373204786120054     
  0.96879072108427566     
  0.90805966670380311     
  0.85949876579179818     
  0.82115872661714406     
  0.79078462632831736     
  0.76609859162671923     
  0.74651570540843792     
  0.73135860997740143     
  0.72569233873850258     
  0.78663428260631674     
  0.88079499809037076     
  0.89263029565330976     
  0.90437076323866061     
  0.92127809756564349     
  0.93915944526354489     
  0.95711343540578908     
  0.97486023367942132     
  0.99232318353689453     
   1.0093844450165632     
   1.0262341399907564     
   1.0428855648341366     
   1.0590475325289941     
   1.0746182291063857     
   1.0887949480295780     
   1.0988965676064397     
   1.0853393272034315     
   1.0809874865451117     
   1.0940933322585431     
   1.0849855117583620     
   1.0721694970358744     
   1.0575326653719874     
   1.0420237828201526     
   1.0259771716202362     
   1.0094485363261811     
  0.99286193776931986     
  0.97574472468649665     
  0.95832232848125687     
  0.94068231808991043     
  0.92311119463406166     
  0.90651282824877222     
  0.89467688972502324     
  0.88232383232519895     
  0.79212701111170258     
  0.73165632503898526     
  0.73719422909068333     
  0.75287740825795657     
  0.77319997455975797     
  0.79883983398560210     
  0.83043741392427362     
  0.87021795859353024     
  0.91980344237500433     
  0.97963931642374391     
   1.0467462599185551     
   1.1177657146200286     
   1.1680357933496899     
   1.1951634815345289     
   1.1951634815025376     
   1.1680357933127836     
   1.1177657146037745     
   1.0467462599566051     
  0.97963931646642743     
  0.91980344242223455     
  0.87021795864600071     
  0.83043741398122439     
  0.79883983400459213     
  0.77319997461691015     
  0.75287740832440908     
  0.73719422911402444     
  0.73165632532454516     
  0.79212701223606830     
  0.88232383244805046     
  0.89467688956753344     
  0.90651282815966860     
  0.92311119458846880     
  0.94068231805711111     
  0.95832232844930243     
  0.97574472464952999     
  0.99286193772753784     
   1.0094485362637453     
   1.0259771715669712     
   1.0420237827723540     
   1.0575326653252657     
   1.0721694969924673     
   1.0849855117205960     
   1.0940933322250936     
   1.0809874865437803     
   1.0766578542232192     
   1.0890543501108265     
   1.0810103121598484     
   1.0694527878591091     
   1.0557472572103619     
   1.0409595236856393     
   1.0255323800737883     
   1.0094471657541371     
  0.99337819127619575     
  0.97667714993864718     
  0.95964281351231528     
  0.94236729441133638     
  0.92516032315771823     
  0.90890437211486907     
  0.89688388883210191     
  0.88382811991485521     
  0.79843935322681914     
  0.73866584420750736     
  0.74386853538018749     
  0.76006076745167761     
  0.78113492443677124     
  0.80765651336444633     
  0.84045761385214202     
  0.88137350724211627     
  0.93140580338307077     
  0.98906732864832936     
   1.0542124115306795     
   1.1155241468530066     
   1.1580959770196404     
   1.1804172566087474     
   1.1804172565762912     
   1.1580959769801695     
   1.1155241468321238     
   1.0542124115539706     
  0.98906732868853120     
  0.93140580342337764     
  0.88137350728929920     
  0.84045761390662432     
  0.80765651338090938     
  0.78113492449930200     
  0.76006076751886686     
  0.74386853540574671     
  0.73866584451635342     
  0.79843935430113455     
  0.88382812001692979     
  0.89688388869105795     
  0.90890437203090568     
  0.92516032311381691     
  0.94236729437936440     
  0.95964281348088609     
  0.97667714990175114     
  0.99337819123331683     
   1.0094471656920181     
   1.0255323800235601     
   1.0409595236390849     
   1.0557472571647877     
   1.0694527878166775     
   1.0810103121229668     
   1.0890543500774243     
   1.0766578542189136     
   1.0723104661643728     
   1.0839017551928138     
   1.0768948951207109     
   1.0665416739419926     
   1.0538304563614860     
   1.0398293440060933     
   1.0250448264725096     
   1.0095229817872118     
  0.99393539154140231     
  0.97770540859605903     
  0.96110592722226373     
  0.94424085972868821     
  0.92743328682524462     
  0.91153888372783654     
  0.89926049884200110     
  0.88536832306924129     
  0.80559260080932649     
  0.74689326411184986     
  0.75152763924743171     
  0.76820534471843860     
  0.79009199284176490     
  0.81727187157014292     
  0.85121876220991344     
  0.89296045539134228     
  0.94287000082407646     
  0.99764980666190717     
   1.0594752948260022     
   1.1120393080754629     
   1.1479407951000324     
   1.1663228444162663     
   1.1663228443833435     
   1.1479407950583349     
   1.1120393080503506     
   1.0594752948336463     
  0.99764980670155101     
  0.94287000085905859     
  0.89296045543366598     
  0.85121876225999205     
  0.81727187160024628     
  0.79009199289729326     
  0.76820534478584468     
  0.75152763927621369     
  0.74689326444769832     
  0.80559260182301140     
  0.88536832318473402     
  0.89926049871221103     
  0.91153888364977087     
  0.92743328678250914     
  0.94424085969698468     
  0.96110592719078258     
  0.97770540855914001     
  0.99393539149540333     
   1.0095229817282372     
   1.0250448264257146     
   1.0398293439614634     
   1.0538304563176515     
   1.0665416739009548     
   1.0768948950847883     
   1.0839017551597674     
   1.0723104661575560     
   1.0679405266348552     
   1.0787001201254465     
   1.0726673200318086     
   1.0635015985675633     
   1.0518423389161036     
   1.0386601429740656     
   1.0245263855903164     
   1.0096349959610997     
  0.99447568441754330     
  0.97877264983721035     
  0.96264457751383181     
  0.94622968887067049     
  0.92985942097345120     
  0.91433723187840077     
  0.90172302371619772     
  0.88682412615584139     
  0.81347823228331906     
  0.75638946767601756     
  0.76016359572466030     
  0.77720501499193395     
  0.79981622494105908     
  0.82770850098989568     
  0.86258845403857276     
  0.90476133238374257     
  0.95383330265139854     
   1.0056792189680783     
   1.0625601644650455     
   1.1075768033537754     
   1.1377164085135725     
   1.1528415693300884     
   1.1528415692967684     
   1.1377164084701121     
   1.1075768033249900     
   1.0625601644599483     
   1.0056792190048549     
  0.95383330268282374     
  0.90476133242050116     
  0.86258845408260798     
  0.82770850103546301     
  0.79981622496987315     
  0.77720501505373907     
  0.76016359575596859     
  0.75638946804581708     
  0.81347823323798873     
  0.88682412626910001     
  0.90172302360340484     
  0.91433723180794479     
  0.92985942093279439     
  0.94622968883996639     
  0.96264457748280208     
  0.97877264980138401     
  0.99447568436745393     
   1.0096349959074020     
   1.0245263855461377     
   1.0386601429312794     
   1.0518423388741738     
   1.0635015985282272     
   1.0726673199970518     
   1.0787001200929009     
   1.0679405266258746     
   1.0635563416212734     
   1.0734908700188059     
   1.0683579022489340     
   1.0603540468865904     
   1.0497570953288837     
   1.0373954419126781     
   1.0239168687734688     
   1.0096643432992927     
  0.99489440760230818     
  0.97977418290744223     
  0.96415796937573794     
  0.94827169273313827     
  0.93240840917656898     
  0.91726809571010426     
  0.90426622430455561     
  0.88826686474317484     
  0.82207740956678144     
  0.76738145490626897     
  0.76982598150340442     
  0.78705763123026817     
  0.81026576992110921     
  0.83893978756180887     
  0.87439370562591201     
  0.91647923239070361     
  0.96381903162561844     
   1.0132558508638017     
   1.0639091771464539     
   1.1023738160445840     
   1.1275255066719845     
   1.1399477566542020     
   1.1399477566205889     
   1.1275255066271854     
   1.1023738160124172     
   1.0639091771339100     
   1.0132558508942320     
  0.96381903165446414     
  0.91647923242063234     
  0.87439370566349017     
  0.83893978761007104     
  0.81026576993163102     
  0.78705763128827488     
  0.76982598153832482     
  0.76738145533010660     
  0.82207741043796345     
  0.88826686484678663     
  0.90426622421510927     
  0.91726809564766931     
  0.93240840913738887     
  0.94827169270200773     
  0.96415796934322107     
  0.97977418287200246     
  0.99489440754785718     
   1.0096643432500056     
   1.0239168687307085     
   1.0373954418712592     
   1.0497570952886668     
   1.0603540468490509     
   1.0683579022155572     
   1.0734908699867944     
   1.0635563416103997     
   1.0591721372603602     
   1.0683076305404424     
   1.0639921225175883     
   1.0570905157658315     
   1.0475345032656858     
   1.0360135461493145     
   1.0232297684338070     
   1.0096131924604943     
  0.99528702488981147     
  0.98079566634651472     
  0.96574297090694616     
  0.95040216019673562     
  0.93506648519483049     
  0.92030524028576233     
  0.90690112760060759     
  0.88988886116476218     
  0.83128430551151100     
  0.77965921734666221     