# vtk DataFile Version 2.0
vtk output
ASCII
DATASET STRUCTURED_GRID
DIMENSIONS       61      49       1
POINTS     2989 double
   1.0000000000000000        0.0000000000000000        0.0000000000000000     
  0.99726094768413698       -1.3803675976207299E-004   0.0000000000000000     
  0.98907380036690296       -5.6358534467369705E-004   0.0000000000000000     
  0.97552825814757704       -1.3103806574250199E-003   0.0000000000000000     
  0.95677272882130004       -2.4323425348670002E-003   0.0000000000000000     
  0.93301270189221897       -3.9989734064939499E-003   0.0000000000000000     
  0.90450849718747395       -6.0871420295534797E-003   0.0000000000000000     
  0.87157241273869701       -8.7685345535591999E-003   0.0000000000000000     
  0.83456530317942901       -1.2093004057457101E-002   0.0000000000000000     
  0.79389262614623601       -1.6069348703915201E-002   0.0000000000000000     
  0.75000000000000000       -2.0646368416669801E-002   0.0000000000000000     
  0.70336832153789997       -2.5698007364573699E-002   0.0000000000000000     
  0.65450849718747395       -3.1016642659413202E-002   0.0000000000000000     
  0.60395584540888003       -3.6317920200982103E-002   0.0000000000000000     
  0.55226423163382699       -4.1258957686422799E-002   0.0000000000000000     
  0.50000000000000000       -4.5469445648113498E-002   0.0000000000000000     
  0.44773576836617301       -4.8592586714445898E-002   0.0000000000000000     
  0.39604415459112002       -5.0330445502073898E-002   0.0000000000000000     
  0.34549150281252600       -5.0486670398807103E-002   0.0000000000000000     
  0.29663167846209998       -4.8999119034244698E-002   0.0000000000000000     
  0.25000000000000000       -4.5955885958334497E-002   0.0000000000000000     
  0.20610737385376299       -4.1590535637536501E-002   0.0000000000000000     
  0.16543469682057099       -3.6255648125256203E-002   0.0000000000000000     
  0.12842758726130299       -3.0377522832230101E-002   0.0000000000000000     
   9.5491502812526302E-002  -2.4398367295513802E-002   0.0000000000000000     
   6.6987298107780605E-002  -1.8714841774597500E-002   0.0000000000000000     
   4.3227271178699601E-002  -1.3622903444407600E-002   0.0000000000000000     
   2.4471741852423200E-002  -9.2782232779210407E-003   0.0000000000000000     
   1.0926199633097201E-002  -5.6790869148021297E-003   0.0000000000000000     
   2.7390523158633598E-003  -2.6750161950744801E-003   0.0000000000000000     
   0.0000000000000000        0.0000000000000000        0.0000000000000000     
   2.7390523158633598E-003   6.6296997130825203E-003   0.0000000000000000     
   1.0926199633097201E-002   1.3158128778861701E-002   0.0000000000000000     
   2.4471741852423200E-002   1.9490161522475100E-002   0.0000000000000000     
   4.3227271178699601E-002   2.5541491443680699E-002   0.0000000000000000     
   6.6987298107780605E-002   3.1240720521972201E-002   0.0000000000000000     
   9.5491502812526302E-002   3.6528382072759401E-002   0.0000000000000000     
  0.12842758726130299        4.1353180474334901E-002   0.0000000000000000     
  0.16543469682057099        4.5666453386114900E-002   0.0000000000000000     
  0.20610737385376299        4.9416374370656699E-002   0.0000000000000000     
  0.25000000000000000        5.2543593283415700E-002   0.0000000000000000     
  0.29663167846209998        5.4979807727218999E-002   0.0000000000000000     
  0.34549150281252600        5.6650204627514897E-002   0.0000000000000000     
  0.39604415459112002        5.7479917487469098E-002   0.0000000000000000     
  0.44773576836617301        5.7403777206113997E-002   0.0000000000000000     
  0.50000000000000000        5.6377876396740301E-002   0.0000000000000000     
  0.55226423163382699        5.4390982077258600E-002   0.0000000000000000     
  0.60395584540888003        5.1473726549617002E-002   0.0000000000000000     
  0.65450849718747395        4.7703809072350098E-002   0.0000000000000000     
  0.70336832153789997        4.3206093853165303E-002   0.0000000000000000     
  0.75000000000000000        3.8147361869168298E-002   0.0000000000000000     
  0.79389262614623601        3.2726388542894197E-002   0.0000000000000000     
  0.83456530317942901        2.7160792051172299E-002   0.0000000000000000     
  0.87157241273869701        2.1672575121598401E-002   0.0000000000000000     
  0.90450849718747395        1.6474377373969101E-002   0.0000000000000000     
  0.93301270189221897        1.1758158479471899E-002   0.0000000000000000     
  0.95677272882130004        7.6874201954182202E-003   0.0000000000000000     
  0.97552825814757704        4.3932886183710596E-003   0.0000000000000000     
  0.98907380036690296        1.9739917570632199E-003   0.0000000000000000     
  0.99726094768413698        4.9665228904950795E-004   0.0000000000000000     
   1.0000000000000000        0.0000000000000000        0.0000000000000000     
   1.0006214737850201       -3.7614633730641602E-005   0.0000000000000000     
  0.99768605483093298       -3.4532046334568300E-003   0.0000000000000000     
  0.98900200220227796       -5.1532881033946503E-003   0.0000000000000000     
  0.97537610038886002       -6.2720023412696996E-003   0.0000000000000000     
  0.95670687483041705       -7.4682087837078899E-003   0.0000000000000000     
  0.93305657193312896       -9.0388711843252898E-003   0.0000000000000000     
  0.90465214808153405       -1.1119841144490500E-002   0.0000000000000000     
  0.87180388713805801       -1.3792936056963400E-002   0.0000000000000000     
  0.83487385873035602       -1.7108465032725000E-002   0.0000000000000000     
  0.79426675549602799       -2.1074793511286001E-002   0.0000000000000000     
  0.75042557106285401       -2.5640746602559300E-002   0.0000000000000000     
  0.70382752814042704       -3.0680764986021802E-002   0.0000000000000000     
  0.65497957690911401       -3.5988000324145897E-002   0.0000000000000000     
  0.60441348863757605       -4.1278902907673103E-002   0.0000000000000000     
  0.55268062890632896       -4.6211168764382700E-002   0.0000000000000000     
  0.50034647674026500       -5.0414643935453397E-002   0.0000000000000000     
  0.44798492353049402       -5.3532202868677700E-002   0.0000000000000000     
  0.39617234433206200       -5.5265226775940299E-002   0.0000000000000000     
  0.34548139358127200       -5.5416636900148003E-002   0.0000000000000000     
  0.29647447774634600       -5.3923923574694797E-002   0.0000000000000000     
  0.24969693165497300       -5.0875505269735798E-002   0.0000000000000000     
  0.20567005714452299       -4.6506043236433800E-002   0.0000000000000000     
  0.16488428961409399       -4.1169706548018999E-002   0.0000000000000000     
  0.12779272226589400       -3.5294187905612201E-002   0.0000000000000000     
   9.4804875153223805E-002  -2.9321528832127099E-002   0.0000000000000000     
   6.6279409107444898E-002  -2.3642806502310300E-002   0.0000000000000000     
   4.2510786257805799E-002  -1.8528629211820899E-002   0.0000000000000000     
   2.3698754709919698E-002  -1.4040415735006900E-002   0.0000000000000000     
   9.9161732367089098E-003  -9.8933310889102802E-003   0.0000000000000000     
   1.3008699834234699E-003  -5.3732925831183904E-003   0.0000000000000000     
  -1.8680073482776299E-003  -4.2049026583194698E-004   0.0000000000000000     
   4.4121995174797700E-004   8.4869955694625403E-003   0.0000000000000000     
   9.0431939226778297E-003   1.6700677687262099E-002   0.0000000000000000     
   2.3121789543920000E-002   2.3839585442824100E-002   0.0000000000000000     
   4.2247964197131400E-002   3.0221153256148402E-002   0.0000000000000000     
   6.6247086016449297E-002   3.6057948448434102E-002   0.0000000000000000     
   9.4915167420692600E-002   4.1410242677149101E-002   0.0000000000000000     
  0.12797268152808999        4.6269769204899801E-002   0.0000000000000000     
  0.16507608664184700        5.0603458675829299E-002   0.0000000000000000     
  0.20583000738316301        5.4365837469050299E-002   0.0000000000000000     
  0.24979539738947801        5.7500569754838200E-002   0.0000000000000000     
  0.29649589115368302        5.9940985232765601E-002   0.0000000000000000     
  0.34542365425359500        6.1613247380962903E-002   0.0000000000000000     
  0.39604522329870501        6.2443122400715402E-002   0.0000000000000000     
  0.44780749650268997        6.2365885747584303E-002   0.0000000000000000     
  0.50014391039959505        6.1337978907621098E-002   0.0000000000000000     
  0.55248078150025703        5.9348485951582000E-002   0.0000000000000000     
  0.60424375843502798        5.6428370074946499E-002   0.0000000000000000     
  0.65486430672621299        5.2655703297585801E-002   0.0000000000000000     
  0.70378613140963797        4.8155774593802200E-002   0.0000000000000000     
  0.75047143165567498        4.3095839288178200E-002   0.0000000000000000     
  0.79440687447483505        3.7675196937772798E-002   0.0000000000000000     
  0.83510916623745302        3.2112069768213000E-002   0.0000000000000000     
  0.87213008835569705        2.6629232670211899E-002   0.0000000000000000     
  0.90506090799393102        2.1440306567190599E-002   0.0000000000000000     
  0.93353664305228301        1.6737289484441399E-002   0.0000000000000000     
  0.95724385023467295        1.2673926030227999E-002   0.0000000000000000     
  0.97594623148546999        9.3201341703460800E-003   0.0000000000000000     
  0.98954958143094296        6.5316428770439000E-003   0.0000000000000000     
  0.99807878810737904        3.7365908952829798E-003   0.0000000000000000     
   1.0006214737850201       -3.7614633730640802E-005   0.0000000000000000     
   1.0031678509152600       -1.7869944928690400E-004   0.0000000000000000     
   1.0000743439337101       -6.4340134532105703E-003   0.0000000000000000     
[...]
CELL_DATA     2880
SCALARS rho        double 1
LOOKUP_TABLE default
   1.1047478198693756     
   1.0864693514423329     
   1.0748611346933690     
   1.0660790169294820     
   1.0590100848779693     
   1.0526333986121861     
   1.0460176012912485     
   1.0384314364844489     
   1.0292565426547968     
   1.0179238524809930     
   1.0039742393419147     
  0.98828937700113795     
  0.96930928317773024     
  0.94788846256568826     
  0.92489604065478959     
  0.90209834790955046     
  0.88259311733895851     
  0.86831994634024556     
  0.87222057997880198     
  0.88689305854831502     
  0.91058859400964520     
  0.93965148179725622     
  0.97077876527967921     
   1.0014051992628419     
   1.0298939589717728     
   1.0554275863969935     
   1.0776699371666951     
   1.0985520896950300     
   1.1396883838574894     
   1.2700653496963288     
   1.2818508418276429     
  0.97941810672229579     
  0.85307222780280212     
  0.79715438679352735     
  0.77645754654641708     
  0.76440044471058133     
  0.75614287981132766     
  0.75067596550122395     
  0.74677977380559057     
  0.74344898625381395     
  0.74004798730598131     
  0.73623851376908023     
  0.73207804715750624     
  0.73689345958507080     
  0.75978568512780287     
  0.79163962466828386     
  0.80981451030256357     
  0.82574862018501360     
  0.84540754962912434     
  0.86625469617237727     
  0.88726196907005339     
  0.90812830267852951     
  0.92860045411522762     
  0.94858222689750704     
  0.96790384325396228     
  0.98680924314379559     
   1.0055662481533345     
   1.0229530381874627     
   1.0385558325744380     
   1.0564148388515171     
   1.1056730411062679     
   1.0902987866855343     
   1.0823179332786981     
   1.0752479287015895     
   1.0688244145197967     
   1.0626204384318851     
   1.0560827432118758     
   1.0486125011798055     
   1.0396065050774790     
   1.0285255649074401     
   1.0149781927969757     
  0.99957010550431868     
  0.98107699925441127     
  0.96022706473840169     
  0.93786718516698941     
  0.91574651513294580     
  0.89693257643405833     
  0.88324540685010922     
  0.88805652319688499     
  0.90306629686529105     
  0.92697393408661699     
  0.95592852102385173     
  0.98689195312710110     
   1.0174997505064693     
   1.0461890156745142     
   1.0725271041960591     
   1.0975809500832618     
   1.1269918238980352     
   1.1772062985469096     
   1.2388498958408418     
   1.2554338667956269     
   1.0676480981456475     
  0.92895087980270064     
  0.85326883269981024     
  0.81823516542408081     
  0.79966006707954795     
  0.78816319673835911     
  0.78063205804297342     
  0.77530090225644521     
  0.77093996198575365     
  0.76678113872996911     
  0.76233930582732856     
  0.75757839730615040     
  0.76216667094630419     
  0.78545192079040860     
  0.81775988636634855     
  0.83594891560811180     
  0.85175851118001999     
  0.87130252862217639     
  0.89195652030104688     
  0.91266899857708617     
  0.93314078293880298     
  0.95311390580473854     
  0.97248816159419826     
  0.99099174726558692     
   1.0089320942303479     
   1.0257800941002606     
   1.0401642807261358     
   1.0499688448262903     
   1.0669372302117042     
   1.0945142153838794     
   1.0936558552375819     
   1.0861557727389606     
   1.0785124746506520     
   1.0718090253618513     
   1.0655339429186139     
   1.0589743981396902     
   1.0514363500941024     
   1.0423318987414325     
   1.0311408352295235     
   1.0175273744283302     
   1.0019775632510628     
  0.98343440033491025     
  0.96264500197142833     
  0.94046268641198993     
  0.91862399062335065     
  0.90015510058277082     
  0.88679924492064577     
  0.89154643168894243     
  0.90646619577262033     
  0.93007250910101036     
  0.95877071004316206     
  0.98943606244023452     
   1.0197327652762891     
   1.0481155442309922     
   1.0745239228933119     
   1.1004739161932628     
   1.1333209327384333     
   1.1840626097574634     
   1.2194048721261987     
   1.2365978226597658     
   1.1048256699541186     
  0.96305496512224886     
  0.87825647625095116     
  0.83430233447156832     
  0.81157559495172038     
  0.79816323312141713     
  0.78957990403580425     
  0.78365957429490418     
  0.77900353092125085     
  0.77472010452782647     
  0.77029190945501236     
  0.76567409238483275     
  0.77042417054487378     
  0.79416639306966741     
  0.82675385151020808     
  0.84524922473888253     
  0.86141033791173938     
  0.88138083439860648     
  0.90250403746380281     
  0.92372782008921328     
  0.94474669874668138     
  0.96528486008558778     
  0.98521446337290286     
   1.0042303588496158     
   1.0228759682867998     
   1.0402539030455487     
   1.0546023804578297     
   1.0620063444558847     
   1.0587038525649966     
   1.0860949421390815     
   1.0916973312471754     
   1.0842828099855553     
   1.0765577791816290     
   1.0698865409726375     
   1.0636941471715080     
   1.0572024225202870     
   1.0497530459414897     
   1.0407845919298619     
   1.0298115988760816     
   1.0165498869829706     
   1.0012874094985464     
  0.98322529828608818     
  0.96301283883290523     
  0.94145293199468005     
  0.92026197626341688     
  0.90242462815607394     
  0.88960258813222193     
  0.89457758990703784     
  0.90943580716124228     
  0.93272478638224099     
  0.96090948542314281     
  0.99089464794411619     
   1.0204587127412839     
   1.0479962959474967     
   1.0743018299754874     
   1.1010195126991222     
   1.1350328289525142     
   1.1774563255871566     
   1.1990985013875473     
   1.2100661390925511     
   1.1188141700469265     
  0.98745761576286295     
  0.90026016486596305     
  0.84781881659909608     
  0.82060969360155467     
  0.80497440023572209     
  0.79509740309772470     
  0.78836454197646399     
  0.78321083384163459     
  0.77864355052203205     
  0.77406645775121996     
  0.76941544094241965     
  0.77417243571483141     
  0.79784049293262627     
  0.83035751673088476     
  0.84883108614001945     
  0.86495340161653400     
  0.88490746310978030     
  0.90599864096129590     
  0.92717598904759924     
  0.94815490620460474     
  0.96866455150546171     
  0.98857445538825794     
   1.0075220313975100     
   1.0263003557193013     
   1.0443284679262801     
   1.0608210912103566     
   1.0689674207650515     
   1.0542216760455314     
   1.0803264796801999     
   1.0880144337954747     
   1.0812315418256400     
   1.0741517741518827     
   1.0678775246121246     
   1.0619063365610679     
   1.0555704417911140     
   1.0482807356573318     
   1.0395113122318156     
   1.0288132816648607     
   1.0159395203523081     
   1.0009954866257504     
  0.98341488015408496     
  0.96376742739612753     
  0.94286171962562015     
  0.92236602808379164     
  0.90522069495461577     
  0.89299016957320554     
  0.89816876770219267     
  0.91292045320971826     
  0.93580165130954129     
  0.96335020636155866     
  0.99253566395651616     
   1.0212719970241353     
   1.0478960704254501     
   1.0739297172929925     
   1.1008918989723033     
   1.1335452254502463     
   1.1680699102280581     
   1.1813928067893085     
   1.1857201139077509     
   1.1211450411341157     
   1.0071466582291961     
  0.92052904099021537     
  0.86136397625621131     
  0.82936572025092625     
  0.81135286469202639     
  0.80005056123402030     
  0.79242511127378501     
  0.78672490578366494     
  0.78184676740345627     
  0.77711721230258934     
  0.77244487947333329     
  0.77724115951119144     
  0.80078786027824267     
  0.83308863187532767     
  0.85151916743511680     
  0.86753523464509330     
  0.88729375784852171     
  0.90818016646297806     
  0.92912625352299327     
  0.94983208162592114     
  0.97002443142710582     
  0.98955041220016438     
   1.0081145850067368     
   1.0264326668597135     
   1.0440361119949739     
   1.0605861821837952     
   1.0715187048824217     
   1.0517116348206512     
   1.0756978775537880     
   1.0836060920491821     
   1.0779563798871667     
   1.0718913801604282     
   1.0661376573480859     
   1.0604177525953911     
   1.0542486879517301     
   1.0471229983222328     
   1.0385540758742371     
   1.0281264358005693     
   1.0156131583338202     
   1.0010316186393173     
  0.98395080594625961     
  0.96491010800225019     
  0.94469793959379700     
  0.92494750571741369     
  0.90855262177803919     
  0.89697399961731061     
  0.90234756690809537     
  0.91694852549262384     
  0.93934716072340130     
  0.96617296198695923     
  0.99447384245911408     
   1.0222548062145527     
   1.0481913410570138     
   1.0737752409124024     
   1.1004241148737650     
   1.1306361983003521     
   1.1577432529157408     
   1.1660427791132408     
   1.1648293969515948     
   1.1163171677458741     
   1.0229576160550717     
  0.93783834145266176     
  0.87500445727003062     
  0.83848426245498986     
  0.81775466009197573     
  0.80493089979880506     
  0.79637017421830725     
  0.79006947354934509     
  0.78484518815132909     
  0.77995764377458676     
  0.77527374525399628     
  0.78014033835920027     
  0.80355010910906821     
  0.83547140411074938     
  0.85378585409501950     
  0.86971697928055836     
  0.88926710366752093     
  0.90990014381804407     
  0.93055950402962717     
  0.95093553766988981     
  0.97075234070647298     
  0.98981721911590459     
   1.0079786622416149     
   1.0257719863122958     
   1.0428406955707201     
   1.0588830539971055     
   1.0701824980333707     
   1.0497285683056523     
   1.0715081972011933     
   1.0790520752036066     
   1.0747087560090964     
   1.0696713567230915     
   1.0643998315093219     
   1.0589017573252677     
   1.0528838662183140     
   1.0459170222628964     
   1.0375540720940677     
   1.0274111418248713     
   1.0152689603689595     
   1.0010706171155090     
  0.98452837407266403     
  0.96613533273296870     
  0.94667222730394396     
  0.92773364545677461     
  0.91215800340717756     
  0.90130693342394164     
  0.90685177338998135     
  0.92123979866584571     
  0.94305806885148780     
  0.96905469834470570     
  0.99637112650555903     
   1.0230732121096677     
   1.0484705299919639     
   1.0734607379808752     
   1.0994063490208943     
   1.1265080256054780     
   1.1474253408530608     
   1.1524526473360248     
   1.1472026516924523     
   1.1096103329074856     
   1.0347885436289306     
  0.95265872764095005     
  0.88913875490625682     
  0.84840723353311764     
  0.82477436363936318     
  0.81030422868198748     
  0.80070724803453275     
  0.79375992769555337     
  0.78816036807429812     
  0.78309904388323337     
  0.77842210907499809     
  0.78340249633878034     
  0.80665017455288579     
  0.83803852313010374     
  0.85622777314933163     
  0.87207134218209548     
  0.89136072597406191     
  0.91168008829427827     
  0.93198453851752472     
  0.95195473177975232     
  0.97132286556957370     
  0.98982728061680270     
   1.0076213596568835     
   1.0247703221929230     
   1.0411725765892803     
   1.0563813111267208     
   1.0676413379827530     
   1.0478726055842658     
   1.0675014424768849     
   1.0745401230630962     
   1.0714672727313537     
   1.0673378519310803     
   1.0624877458756856     
   1.0571913461962503     
   1.0513173434194130     
   1.0445116167759174     
   1.0363685528271827     
   1.0265334472557621     
   1.0147887816694818     
   1.0010194523324452     
  0.98508154704596596     
  0.96739820971019486     
  0.94875884876980598     
  0.93071395933773082     
  0.91603198290812016     
  0.90599205796200666     
  0.91167072041643604     
  0.92577051114655640     
  0.94689715280823483     
  0.97195070671008854     
  0.99819753368855457     
   1.0237054989080236     
   1.0485772622491782     
   1.0728010732859150     
   1.0976171707981817     
   1.1213774304785515     
   1.1374519521069222     
   1.1400097699000875     
   1.1323091293092340     
   1.1021249319210906     
   1.0425170966323889     
  0.96546656774750950     
  0.90353382696894591     
  0.85939350638243373     
  0.83266408787201884     
  0.81637747831214413     
  0.80567870379716711     
  0.79803134794703412     
  0.79202240789369438     
  0.78677670787682996     
  0.78212655760801197     
  0.78727723943857308     
  0.81030672400139947     
  0.84098621988988065     
  0.85904362178375393     
  0.87481807100728526     
  0.89380509385067819     
  0.91376096479088076     
  0.93365993281252968     
  0.95317049603326720     
  0.97204190775852184     
  0.98993149196439512     
   1.0073183824172465     
   1.0238070442186731     
   1.0394611409513823     
   1.0536803090233375     
   1.0644854405101214     
   1.0460022108740767     
   1.0635894816541009     
   1.0701176137123167     
   1.0681737031338470     
   1.0648255964997775     
   1.0603748897416021     
   1.0552929199363628     
   1.0495737857833074     
   1.0429404737655608     
   1.0350355215910410     
   1.0255342805430296     
   1.0142194803886193     
   1.0009559251191182     
  0.98566430837453112     
  0.96876313751822674     
  0.95102597142254230     
  0.93395888297794971     
  0.92024060334803659     
  0.91109785203112692     
  0.91685876601722238     
  0.93058504591707958     
  0.95090263197487646     
  0.97489772868289204     
   1.0000057119753525     
   1.0242514656393655     
   1.0484564441322526     
   1.0717799109468644     
   1.0950295940595371     
   1.1154562282597027     
   1.1277922745388578     
   1.1284598102049641     
   1.1195276350931000     
   1.0945492888250152     
   1.0466300131780830     
  0.97687723418341765     
  0.91781067631042146     
  0.87130623245781702     
  0.84147246399477926     
  0.82316152582220281     
  0.81125210932214120     
  0.80284458772068479     
  0.79638708607217334     
  0.79095536135552180     
  0.78636342698853634     
  0.79173549193435744     
  0.81445544373221568     
  0.84423128696283456     
  0.86213465203158635     
  0.87785737577821976     
  0.89649818364129585     
  0.91604070485529820     
  0.93549094739189309     
  0.95450724366627393     
  0.97286412426037339     
  0.99014688737012513     
   1.0070997116902136     
   1.0229447419947020     
   1.0377752862190364     
   1.0508864266433786     
   1.0609471156137993     
   1.0440359438662594     
   1.0597301847821075     
   1.0657822507464314     
   1.0648144128876105     
   1.0621367931961663     
   1.0581042496616573     
   1.0532731658674881     
   1.0477316215262822     
   1.0412858572476371     
   1.0336352794829333     
   1.0244890505761470     
   1.0136339733882276     
   1.0009246105707965     
  0.98633928767460777     
  0.97029296762064299     
  0.95353623464306070     
  0.93753030253846226     
  0.92483749207809929     
  0.91667666392947078     
  0.92245710155563143     
  0.93572089378645917     
  0.95511925984358736     
  0.97795134968127773     
   1.0018590223593939     
   1.0248787182693484     
   1.0481901918810612     
   1.0704381598655033     
   1.0917570156851795     
   1.1090040683822899     
   1.1184081592715291     
   1.1175694614043834     
   1.1083168507140222     
   1.0872196243603616     
   1.0481641355221001     
  0.98725531378859721     
  0.93121615157712778     
  0.88379126862538848     
  0.85112662590998256     
  0.83057214560871795     
  0.81732381587087000     
  0.80809951943291447     
  0.80116510508984284     
  0.79554142766848845     
  0.79104208487316396     
  0.79669298374227115     
  0.81897017215614887     
  0.84760614122288291     
  0.86535923004889559     
  0.88104671382350241     
  0.89928830992740283     
  0.91834590196782540     
  0.93728659340482368     
  0.95578312763298268     
  0.97362664827460255     
  0.99036953744602707     
   1.0068391608554299     
   1.0221037938671556     
   1.0361022658852581     
   1.0480588687932508     
   1.0572284870971511     
   1.0419430871932549     
   1.0559065246396124     
   1.0615177701182728     
   1.0613912651049859     
   1.0593016528734194     
   1.0557172289202710     
   1.0511739810968117     
   1.0458315217483607     
   1.0395844857081253     
   1.0321971577760680     
   1.0234177042314518     
   1.0130445916160040     
   1.0009371812621704     
  0.98710863785421410     
  0.97198085131368950     
  0.95627809655594875     
  0.94141176078077116     
  0.92979310840742702     
  0.92269207867331937     
  0.92841911219901740     
  0.94113077842819315     
  0.95951140319770123     
  0.98108558107166766     
   1.0037121049161690     
   1.0256374781185538     
   1.0478142235240295     
   1.0687893711496503     
   1.0879335389711877     
   1.1022461238688845     
   1.1092874142238334     
   1.1072119692143767     
   1.0982540502223570     
   1.0801827599724318     
   1.0475680589190211     
  0.99642978396543747     
  0.94313966210977773     
  0.89641200381935060     
  0.86157522844035250     
  0.83874922793212525     
  0.82397501320774402     
  0.81385163429049989     
  0.80640775070183035     
  0.80059123052422798     
  0.79622698887840027     
  0.80223253714921694     
  0.82398168888746381     
  0.85123733138461766     
  0.86879505122614742     
  0.88442813779764429     
  0.90221933923406783     
  0.92073945906022014     
  0.93912108021677754     
  0.95702048344844581     
  0.97428786421765312     
  0.99053541770490672     
   1.0064512211233956     
   1.0211634418845346     
   1.0343605281647821     
   1.0451986844459722     
   1.0534518643000534     
   1.0397237147070744     
   1.0521172988192913     
   1.0573291337293460     
   1.0578933683403633     
   1.0563415336660746     
   1.0532261923720698     
   1.0489992426042070     
   1.0438744550070458     
   1.0378352303324523     
   1.0307161213372202     
   1.0223100627128128     
   1.0124356130386609     
   1.0009634191399581     
  0.98795574678419606     
  0.97379720758387778     
  0.95921630881638298     
  0.94556101620548438     
  0.93504837113767969     
  0.92907100564816381     
  0.93466600966126345     
  0.94674093588591979     
  0.96402293037810993     
  0.98426430024627865     
   1.0055222119092648     
   1.0264818040367774     
   1.0473128110811154     
   1.0668111448059359     
   1.0836645069850968     
   1.0953363766352471     
   1.1004167854449325     
   1.0973944743328974     
   1.0890489032993367     
   1.0734491228602796     
   1.0459547039143100     
   1.0036712857419674     
  0.95368650604062510     
  0.90898317346486923     
  0.87282406378626565     
  0.84781577285729715     
  0.83140590862285324     
  0.82030003631185522     
  0.81231750111940670     
  0.80631759538745995     
  0.80213872268703512     
  0.80857279062091292     
  0.82961938595547480     
  0.85524345152865122     
  0.87254551912669831     
  0.88809695410132461     
  0.90538647227091817     
  0.92330358244136956     
  0.94107394602656247     
  0.95836634869388704     
  0.97502049670471314     
  0.99079338821127472     
   1.0060751651488067     
   1.0201413501101362     
   1.0325033133427453     
   1.0422924519203303     
   1.0496867322406529     
   1.0373925300680282     
   1.0483746148400201     
   1.0532320991555897     
   1.0543000517420675     
   1.0532752188197889     
   1.0506287228623845     
   1.0467426209928976     
   1.0418597621714181     
   1.0360439266593657     
   1.0292016013272234     
   1.0211761909639652     
   1.0118156595223176     
   1.0010080667157024     
  0.98885888374597364     
  0.97572721429375420     
  0.96232953392110743     
  0.94994504819295733     
  0.94054694901581259     
  0.93574212473854268     