# vtk DataFile Version 2.0
vtk output
ASCII
DATASET STRUCTURED_GRID
DIMENSIONS       61      49       1
POINTS     2989 double
   1.0000000000000000        0.0000000000000000        0.0000000000000000     
  0.99726094768413698       -2.8756912847832200E-004   0.0000000000000000     
  0.98907380036690296       -1.1418564771082699E-003   0.0000000000000000     
  0.97552825814757704       -2.5379122711609698E-003   0.0000000000000000     
  0.95677272882130004       -4.4352097491632599E-003   0.0000000000000000     
  0.93301270189221897       -6.7792883516121600E-003   0.0000000000000000     
  0.90450849718747395       -9.5041156738768003E-003   0.0000000000000000     
  0.87157241273869701       -1.2535117542583900E-002   0.0000000000000000     
  0.83456530317942901       -1.5792695148931599E-002   0.0000000000000000     
  0.79389262614623601       -1.9195895068384101E-002   0.0000000000000000     
  0.75000000000000000       -2.2665765817450001E-002   0.0000000000000000     
  0.70336832153789997       -2.6127870930340000E-002   0.0000000000000000     
  0.65450849718747395       -2.9513471943089401E-002   0.0000000000000000     
  0.60395584540888003       -3.2759062705435001E-002   0.0000000000000000     
  0.55226423163382699       -3.5804217793148498E-002   0.0000000000000000     
  0.50000000000000000       -3.8588070838061303E-002   0.0000000000000000     
  0.44773576836617301       -4.1045097202353102E-002   0.0000000000000000     
  0.39604415459112002       -4.3101161273065999E-002   0.0000000000000000     
  0.34549150281252600       -4.4670927651513100E-002   0.0000000000000000     
  0.29663167846209998       -4.5657674915911897E-002   0.0000000000000000     
  0.25000000000000000       -4.5956273027343703E-002   0.0000000000000000     
  0.20610737385376299       -4.5459616251904200E-002   0.0000000000000000     
  0.16543469682057099       -4.4068209891840703E-002   0.0000000000000000     
  0.12842758726130299       -4.1701990174691700E-002   0.0000000000000000     
   9.5491502812526302E-002  -3.8312925849339402E-002   0.0000000000000000     
   6.6987298107780605E-002  -3.3896613903179197E-002   0.0000000000000000     
   4.3227271178699601E-002  -2.8501018486134799E-002   0.0000000000000000     
   2.4471741852423200E-002  -2.2230744439075901E-002   0.0000000000000000     
   1.0926199633097201E-002  -1.5245763481027699E-002   0.0000000000000000     
   2.7390523158633598E-003  -7.7542480630044099E-003   0.0000000000000000     
   0.0000000000000000        0.0000000000000000        0.0000000000000000     
   2.7390523158633598E-003   8.4365635709568697E-003   0.0000000000000000     
   1.0926199633097201E-002   1.6765398421769901E-002   0.0000000000000000     
   2.4471741852423200E-002   2.4869823093794399E-002   0.0000000000000000     
   4.3227271178699601E-002   3.2617947699278400E-002   0.0000000000000000     
   6.6987298107780605E-002   3.9861211744744898E-002   0.0000000000000000     
   9.5491502812526302E-002   4.6438741099412102E-002   0.0000000000000000     
  0.12842758726130299        5.2187241043606399E-002   0.0000000000000000     
  0.16543469682057099        5.6954879840579301E-002   0.0000000000000000     
  0.20610737385376299        6.0616675156019401E-002   0.0000000000000000     
  0.25000000000000000        6.3088478789062499E-002   0.0000000000000000     
  0.29663167846209998        6.4336854870688201E-002   0.0000000000000000     
  0.34549150281252600        6.4382920996811394E-002   0.0000000000000000     
  0.39604415459112002        6.3299404808869406E-002   0.0000000000000000     
  0.44773576836617301        6.1201506610978999E-002   0.0000000000000000     
  0.50000000000000000        5.8233365307151098E-002   0.0000000000000000     
  0.55226423163382699        5.4552743217886397E-002   0.0000000000000000     
  0.60395584540888003        5.0316803096469999E-002   0.0000000000000000     
  0.65450849718747395        4.5671497740037197E-002   0.0000000000000000     
  0.70336832153789997        4.0746211137594503E-002   0.0000000000000000     
  0.75000000000000000        3.5654076227773598E-002   0.0000000000000000     
  0.79389262614623601        3.0497115020559799E-002   0.0000000000000000     
  0.83456530317942901        2.5374281516507100E-002   0.0000000000000000     
  0.87157241273869701        2.0389867551565900E-002   0.0000000000000000     
  0.90450849718747395        1.5659688830045398E-002   0.0000000000000000     
  0.93301270189221897        1.1313008306059601E-002   0.0000000000000000     
  0.95677272882130004        7.4891542760286301E-003   0.0000000000000000     
  0.97552825814757704        4.3290280423659497E-003   0.0000000000000000     
  0.98907380036690296        1.9628963860095199E-003   0.0000000000000000     
  0.99726094768413698        4.9676179745141802E-004   0.0000000000000000     
   1.0000000000000000        0.0000000000000000        0.0000000000000000     
   1.0007147383878301       -2.3482589613118999E-005   0.0000000000000000     
  0.99786421450627005       -3.5573112415485698E-003   0.0000000000000000     
  0.98922234028793299       -5.7119994599461599E-003   0.0000000000000000     
  0.97558791058095995       -7.4815262635127104E-003   0.0000000000000000     
  0.95688516589573502       -9.4467520480762193E-003   0.0000000000000000     
  0.93318867224737501       -1.1789798523484900E-002   0.0000000000000000     
  0.90473007257584603       -1.4505502959958300E-002   0.0000000000000000     
  0.87182281087959401       -1.7529534720936300E-002   0.0000000000000000     
  0.83483263911224204       -2.0782594196107299E-002   0.0000000000000000     
  0.79416877157336097       -2.4182962162185500E-002   0.0000000000000000     
  0.75027935127579604       -2.7651106988167199E-002   0.0000000000000000     
  0.70364695830532498       -3.1112197967310101E-002   0.0000000000000000     
  0.65478356664363702       -3.4497198161579402E-002   0.0000000000000000     
  0.60422502692820002       -3.7742345924376600E-002   0.0000000000000000     
  0.55252520522337600       -4.0786977918017497E-002   0.0000000000000000     
  0.50024988700749795       -4.3569994953759399E-002   0.0000000000000000     
  0.44797053877859200       -4.6025634988342598E-002   0.0000000000000000     
  0.39625800834185898       -4.8079504198576102E-002   0.0000000000000000     
  0.34567623455502200       -4.9645953769069801E-002   0.0000000000000000     
  0.29677602508597301       -5.0627824431808299E-002   0.0000000000000000     
  0.25008894367192103       -5.0919293299962802E-002   0.0000000000000000     
  0.20612132076204301       -5.0412065486674901E-002   0.0000000000000000     
  0.16534834841661400       -4.9004498377487202E-002   0.0000000000000000     
  0.12820810125731100       -4.6612446820439697E-002   0.0000000000000000     
   9.5095043236004206E-002  -4.3179518005619102E-002   0.0000000000000000     
   6.6352057814969501E-002  -3.8682334679422399E-002   0.0000000000000000     
   4.2260354791891497E-002  -3.3121841775558297E-002   0.0000000000000000     
   2.3035751292325601E-002  -2.6486265374593799E-002   0.0000000000000000     
   8.8817903774343794E-003  -1.8694375880948699E-002   0.0000000000000000     
   1.7827876256210201E-004  -9.6878689384077392E-003   0.0000000000000000     
  -2.7401649462201901E-003   4.2864802583619899E-005   0.0000000000000000     
  -3.8695914985563902E-006   1.0346680504378900E-002   0.0000000000000000     
   8.6443374516735894E-003   2.0138104571430299E-002   0.0000000000000000     
   2.2739023580244301E-002   2.9043569896651199E-002   0.0000000000000000     
   4.1925022413000800E-002   3.7167978382129603E-002   0.0000000000000000     
   6.5999732564504796E-002   4.4588508377489601E-002   0.0000000000000000     
   9.4744982643169204E-002   5.1257220421410003E-002   0.0000000000000000     
  0.12787780105547900        5.7057689368439100E-002   0.0000000000000000     
  0.16505304377649499        6.1857334362768503E-002   0.0000000000000000     
  0.20587299128468700        6.5539795815367702E-002   0.0000000000000000     
  0.24989553784977500        6.8025296954514605E-002   0.0000000000000000     
  0.29664117454131200        6.9282900207123105E-002   0.0000000000000000     
  0.34559948948657399        6.9335286335121205E-002   0.0000000000000000     
  0.39623551709088300        6.8256201321212406E-002   0.0000000000000000     
  0.44799604044239799        6.6161491775461198E-002   0.0000000000000000     
  0.50031586168480202        6.3195664703308202E-002   0.0000000000000000     
  0.55262402381224696        5.9516648552733600E-002   0.0000000000000000     
  0.60434995675122205        5.5281651269712698E-002   0.0000000000000000     
  0.65492951707150304        5.0636636868959098E-002   0.0000000000000000     
  0.70381088938520497        4.5711051638177701E-002   0.0000000000000000     
  0.75046031531337998        4.0618218387771000E-002   0.0000000000000000     
  0.79436760838994502        3.5460546768829100E-002   0.0000000000000000     
  0.83505139420819596        3.0337656087389701E-002   0.0000000000000000     
  0.87206398373641003        2.5354890456114498E-002   0.0000000000000000     
  0.90499581113083805        2.0629532584997400E-002   0.0000000000000000     
  0.93347992637090804        1.6291520155614900E-002   0.0000000000000000     
  0.95720024256815806        1.2471074745676500E-002   0.0000000000000000     
  0.97591787710850098        9.2481297630474992E-003   0.0000000000000000     
  0.98953714339685195        6.5091441646329597E-003   0.0000000000000000     
  0.99808715763765699        3.7195387312954301E-003   0.0000000000000000     
   1.0007147383878301       -2.3482589613119901E-005   0.0000000000000000     
   1.0033161413789400       -1.0462971196175200E-004   0.0000000000000000     
   1.0003765627449599       -6.4609601221818497E-003   0.0000000000000000     
[...]
CELL_DATA     2880
SCALARS rho        double 1
LOOKUP_TABLE default
   1.0857477346153968     
   1.0675474415867616     
   1.0522470044574788     
   1.0379365683480855     
   1.0250594951332144     
   1.0137084941781271     
   1.0035847715812529     
  0.99442379480794807     
  0.98607142623193922     
  0.97840095068285193     
  0.97129627152111786     
  0.96462222531630515     
  0.95821420137119828     
  0.95187663945573364     
  0.94539110469580978     
  0.93853478876024321     
  0.93111113368153198     
  0.92298972507544286     
  0.91413831276609936     
  0.90473018646327596     
  0.89529690806978113     
  0.88682721361187478     
  0.88156602226870517     
  0.88175716839803664     
  0.89095708812469443     
  0.91195597499936787     
  0.95125275550507937     
   1.0182912438329006     
   1.1436241839265429     
   1.3000490025420357     
   1.2565788934794844     
   1.0357237795065719     
  0.90275596948969838     
  0.82755302166754408     
  0.78490652634770164     
  0.75289919587187226     
  0.72525121084077815     
  0.70084461904409934     
  0.67849553677634411     
  0.65893507152666253     
  0.64216630590562662     
  0.62840888883274071     
  0.61795815878355631     
  0.60755099273405544     
  0.63197315434058743     
  0.85200660126498140     
  0.89518886874371606     
  0.89808864124161214     
  0.90591552771969985     
  0.91528439241200543     
  0.92600406141123570     
  0.93764721454474909     
  0.95022343523164399     
  0.96388688069836437     
  0.97880494845918142     
  0.99490550419116808     
   1.0122621009678219     
   1.0298395803670570     
   1.0460014136458249     
   1.0628064610155725     
   1.0915660333451191     
   1.0751326119942948     
   1.0646862478047798     
   1.0531731693141431     
   1.0414571527521757     
   1.0305406087548326     
   1.0208130323152125     
   1.0119318125944077     
   1.0037835871318839     
  0.99627263793531140     
  0.98930115878584679     
  0.98274597635777206     
  0.97645228883313884     
  0.97023421417241706     
  0.96388342360958745     
  0.95718715496005624     
  0.94995989281585846     
  0.94209679511177868     
  0.93361670304957023     
  0.92474064040313397     
  0.91606833054954429     
  0.90863285269574168     
  0.90470341368842577     
  0.90752574609699643     
  0.92003543346632644     
  0.94674833585206208     
  0.99481225394196848     
   1.0677798416536834     
   1.1857024360693516     
   1.2893249192025436     
   1.2575273109426695     
   1.1097763795686437     
  0.96811568027959360     
  0.87997844374130174     
  0.82452325714608332     
  0.78489971956166460     
  0.75330425998305306     
  0.72538982868281843     
  0.70101599279481097     
  0.67973183801137727     
  0.66133977837862745     
  0.64606638273455774     
  0.63441328956092058     
  0.62232047495342180     
  0.64764139421604894     
  0.87096655402463097     
  0.91447700187566716     
  0.91691917318757921     
  0.92461915542677020     
  0.93385608184452651     
  0.94443924083191444     
  0.95592374580319517     
  0.96829518151161142     
  0.98166700747903646     
  0.99611754073504821     
   1.0113467151535938     
   1.0274043651726941     
   1.0423729744685672     
   1.0545263571717178     
   1.0734753024253059     
   1.0812361873583898     
   1.0822630138091414     
   1.0734176719845279     
   1.0614516154848812     
   1.0495339440702576     
   1.0385486989301764     
   1.0286126647802618     
   1.0194188380909723     
   1.0109564099776533     
   1.0031679784013658     
  0.99595275176768483     
  0.98917881386062401     
  0.98268653808416162     
  0.97628951049000778     
  0.96978346659675263     
  0.96296586106442927     
  0.95566009356456083     
  0.94773561802215744     
  0.93922967247634359     
  0.93043006024016817     
  0.92200438266742046     
  0.91506489088574050     
  0.91191230333969586     
  0.91610794221354142     
  0.93067027656921664     
  0.96073530520349537     
   1.0135338521587620     
   1.0899718491518404     
   1.1976428642053369     
   1.2735527104331583     
   1.2462346139805318     
   1.1373597968063700     
  0.99725285962340171     
  0.90515399782687422     
  0.84219007215954622     
  0.79849471235884528     
  0.76480927270597387     
  0.73575391564527082     
  0.71057182629951954     
  0.68865382820367793     
  0.66985477741328714     
  0.65433004330400846     
  0.64242397505853754     
  0.62998670838309356     
  0.65597770301430991     
  0.88068837360778351     
  0.92434838805678066     
  0.92668983855769960     
  0.93453995215289021     
  0.94398410962641255     
  0.95484483449162405     
  0.96665383695956675     
  0.97937516957666493     
  0.99311286034513391     
   1.0079193166041163     
   1.0235458033891522     
   1.0394113198928419     
   1.0538467086296746     
   1.0628934778905816     
   1.0640373295803591     
   1.0743556596572745     
   1.0852984472858385     
   1.0754222142877963     
   1.0627292724950961     
   1.0507135334238555     
   1.0397385117750300     
   1.0297939159369163     
   1.0206906150310453     
   1.0122898777621538     
   1.0045329154878355     
  0.99732563711568345     
  0.99054753290205655     
  0.98404946569510454     
  0.97765390405606056     
  0.97116552582997429     
  0.96439410157338057     
  0.95718443112825602     
  0.94944822838326193     
  0.94123461765440797     
  0.93284438867171082     
  0.92499546304317570     
  0.91884200746882994     
  0.91669883611546144     
  0.92256620108501342     
  0.93923864277352553     
  0.97217957756551820     
   1.0269631395439753     
   1.1048231494657932     
   1.1950070140521625     
   1.2509147108529142     
   1.2279797067449152     
   1.1475617038342607     
   1.0199551652467438     
  0.92735585615417360     
  0.85776626803668321     
  0.81012785941534238     
  0.77401481711639997     
  0.74356422381682841     
  0.71737203251727399     
  0.69468219774605688     
  0.67529132370125300     
  0.65924071036318954     
  0.64682840808404307     
  0.63390976947333744     
  0.65962765453873051     
  0.88398128451653024     
  0.92746687704338004     
  0.92960821070770228     
  0.93753456103930310     
  0.94711004742359772     
  0.95812058472237471     
  0.97009283299515336     
  0.98296949401508671     
  0.99680940550349328     
   1.0115631418668105     
   1.0273345838525152     
   1.0438070427049901     
   1.0594757004996487     
   1.0683067043700918     
   1.0579015442915936     
   1.0699266765896942     
   1.0833032463854884     
   1.0737008620524260     
   1.0617016306876854     
   1.0503188066915430     
   1.0398059101129562     
   1.0300768427906222     
   1.0211956272908653     
   1.0129218189540006     
   1.0052435249494840     
  0.99808798995306014     
  0.99134775397131669     
  0.98488515518887809     
  0.97853316613658348     
  0.97210730748011764     
  0.96542972621083278     
  0.95835996789313227     
  0.95083456082530793     
  0.94293622062205484     
  0.93499699318776974     
  0.92778009372463732     
  0.92248226715032078     
  0.92150237227912291     
  0.92889043903789204     
  0.94763148521641738     
  0.98297010150431097     
   1.0372780266425778     
   1.1135266523762462     
   1.1870598825627727     
   1.2289191043959180     
   1.2094606364696672     
   1.1481882775786438     
   1.0389268485354228     
  0.94613658640973719     
  0.87295206262327751     
  0.82130869612430368     
  0.78276595911028279     
  0.75094554741136754     
  0.72370401418676333     
  0.70019152271663299     
  0.68013810570745747     
  0.66350588617060891     
  0.65055172562038865     
  0.63712108547903268     
  0.66258633024590585     
  0.88570890449352746     
  0.92887962284450598     
  0.93090797888467758     
  0.93873527342756480     
  0.94825579734155185     
  0.95925269287381654     
  0.97121461740364867     
  0.98404812462231239     
  0.99776448149187025     
   1.0122231944570783     
   1.0277873504312796     
   1.0438784855781147     
   1.0594843731412720     
   1.0698776374452015     
   1.0541015194654020     
   1.0663231399659121     
   1.0800656699680409     
   1.0712787134794257     
   1.0604144475027073     
   1.0498399892506871     
   1.0398104133175465     
   1.0303446998940642     
   1.0216915447431996     
   1.0135674820791842     
   1.0059822984204201     
  0.99888931194763575     
  0.99219418844111951     
  0.98577243082856925     
  0.97946931573698826     
  0.97311317980808887     
  0.96654077400623917     
  0.95962934337337358     
  0.95233961396927747     
  0.94478479649152181     
  0.93733265036522950     
  0.93077494438294439     
  0.92635514556454757     
  0.92670230389516572     
  0.93558343016428080     
  0.95629689516632022     
  0.99343930581040341     
   1.0458867974078063     
   1.1178141198646172     
   1.1770133455626395     
   1.2088130296271113     
   1.1920929388378658     
   1.1433794054042070     
   1.0531432513410413     
  0.96158037349657222     
  0.88793415497298689     
  0.83303789470528256     
  0.79187058504180163     
  0.75871747389576460     
  0.73037831305731082     
  0.70598994050714636     
  0.68522732953445631     
  0.66797643123562278     
  0.65444852419327348     
  0.64046030399112586     
  0.66588958068821225     
  0.88710754992180230     
  0.92980306438772620     
  0.93180202636744869     
  0.93959463049267544     
  0.94908352598245982     
  0.96003556247146837     
  0.97193176368609457     
  0.98464512562798934     
  0.99812730485733658     
   1.0122164618077101     
   1.0273015529943321     
   1.0426930535222083     
   1.0577405151825487     
   1.0682072198505976     
   1.0512277095854889     
   1.0629768908270603     
   1.0762591966354671     
   1.0686370521529187     
   1.0590051023812559     
   1.0491437741484602     
   1.0396476984943750     
   1.0304874321808914     
   1.0220151605689092     
   1.0140567581414401     
   1.0065725458251487     
  0.99954846949399900     
  0.99290224308943975     
  0.98652406209474508     
  0.98027316330063652     
  0.97399236354180552     
  0.96753455295536595     
  0.96079639330143674     
  0.95376492878890540     
  0.94658264635962552     
  0.93965754435500615     
  0.93378735773893340     
  0.93034642775446597     
  0.93219273540013126     
  0.94252593121971107     
  0.96491450990844241     
   1.0029963882316082     
   1.0535110622736834     
   1.1186913649550976     
   1.1661407103215189     
   1.1906205289819658     
   1.1761687914613550     
   1.1366583265138703     
   1.0628352061631117     
  0.97490112309623933     
  0.90299292193589209     
  0.84555519498573462     
  0.80186092366613415     
  0.76731232063234067     
  0.73785016533560133     
  0.71254437145626603     
  0.69102664035279493     
  0.67311186105881160     
  0.65896848301808297     
  0.64437353543241527     
  0.67005243312406149     
  0.88870951630179551     
  0.93075587529927872     
  0.93286747473211395     
  0.94062360289192004     
  0.95008691514558252     
  0.96097603902336348     
  0.97277194508561005     
  0.98531770205964841     
  0.99849047878596253     
   1.0122630472934462     
   1.0266960196277277     
   1.0412401925452024     
   1.0552694779684515     
   1.0654963447744237     
   1.0486777151837190     
   1.0596989997225630     
   1.0722173429660584     
   1.0658636057917328     
   1.0573726740437297     
   1.0481892386619471     
   1.0391068536001467     
   1.0303647102090587     
   1.0220608825705155     
   1.0143173074713732     
   1.0069657640336338     
   1.0000383798996142     
  0.99346456563605090     
  0.98715083882080790     
  0.98097259273860804     
  0.97478961090743477     
  0.96847342013129400     
  0.96194540635026649     
  0.95522681024627498     
  0.94848472808393836     
  0.94216875661728716     
  0.93701105295429454     
  0.93464142687978602     
  0.93788032885678041     
  0.94959622453319270     
  0.97327804081581781     
   1.0110983241323617     
   1.0600602109808426     
   1.1164202997457431     
   1.1550542605824750     
   1.1740735473461665     
   1.1615307931232643     
   1.1289358913462131     
   1.0684033240308297     
  0.98672716001956806     
  0.91793891905370206     
  0.85887314986174401     
  0.81288742120709301     
  0.77679429260332900     
  0.74619800561040928     
  0.71996804570215378     
  0.69766776936024533     
  0.67905341647649065     
  0.66425991368106940     
  0.64902233497925388     
  0.67533538246602620     
  0.89058193485688497     
  0.93177504550876855     
  0.93416594353791715     
  0.94189444747665430     
  0.95134096031790483     
  0.96215168484052971     
  0.97381778761072446     
  0.98615789329123849     
  0.99896505296121607     
   1.0124408423104170     
   1.0261845873374056     
   1.0398108320146302     
   1.0525818097673554     
   1.0621656763784428     
   1.0462117752462838     
   1.0564279391522362     
   1.0680926400123447     
   1.0629592061306505     
   1.0555233868368847     
   1.0470404751613325     
   1.0384445610538142     
   1.0300880169484863     
   1.0220193209806572     
   1.0145324688633823     
   1.0073508418452959     
   1.0005511862734373     
  0.99407723850724994     
  0.98785204403535432     
  0.98176946568073764     
  0.97571073934995356     
  0.96956828630494740     
  0.96328456827144582     
  0.95689856796514272     
  0.95061932486018075     
  0.94493961236932067     
  0.94051824739448908     
  0.93931697965240524     
  0.94386314694563656     
  0.95687797972524258     
  0.98144151844430882     
   1.0179889425457478     
   1.0651814113208804     
   1.1127456378668541     
   1.1441125848086187     
   1.1588804315527999     
   1.1479600733846902     
   1.1208212311458694     
   1.0708450732787096     
  0.99783274240411035     
  0.93200647618046295     
  0.87258838324605215     
  0.82465783011845006     
  0.78698898409025564     
  0.75523500330789728     
  0.72810545149008965     
  0.70502022295558819     
  0.68569096250843609     
  0.67023169417508499     
  0.65434798941111072     
  0.68176310117967254     
  0.89245527065154229     
  0.93256312101323546     
  0.93542501476683781     
  0.94314461559083129     
  0.95259026655973378     
  0.96331856861072307     
  0.97484386921684241     
  0.98696559406722228     
  0.99944256091981254     
   1.0125958281457799     
   1.0257036154290053     
   1.0384166197174085     
   1.0498643961385588     
   1.0585071187548718     
   1.0437156562575889     
   1.0531545021305853     
   1.0639552344494987     
   1.0599354026179251     
   1.0535192576243668     
   1.0457926951513496     
   1.0377319092313331     
   1.0297753669912064     
   1.0220080876985358     
   1.0147584926845719     
   1.0077770979162231     
   1.0011274160517865     
  0.99477445575080559     
  0.98865509762525283     
  0.98268548670685607     
  0.97677052848319834     
  0.97082280206541127     
  0.96480765510021460     
  0.95879382820752013     
  0.95302467320921957     
  0.94802274343112092     
  0.94442318117569923     
  0.94437625193493557     
  0.95016642868973533     
  0.96433051739555398     
  0.98938184730908552     
   1.0240077181401497     
   1.0684506834849692     
   1.1080419230940295     
   1.1334434377766955     
   1.1448154959955898     
   1.1352731052124476     
   1.1125791617061240     
   1.0707810665837652     
   1.0078308940149736     
  0.94444095699568609     
  0.88625528632438000     
  0.83711777928300746     
  0.79783670883821600     
  0.76490031893789190     
  0.73689922993080892     
  0.71303300974956130     
  0.69298373295014504     
  0.67685486314327603     
  0.66035643412497813     
  0.68944329873112065     
  0.89416275300585502     
  0.93293649529553369     
  0.93649226011748210     
  0.94423439502417272     
  0.95368081406773486     
  0.96430809553514607     
  0.97566992595002500     
  0.98754048125665161     
  0.99977518069088522     
   1.0125091888083311     
   1.0250683610021776     
   1.0369506993297402     
   1.0471407599520617     
   1.0547164351022640     
   1.0411486838363173     
   1.0498875037148492     
   1.0598424987124695     
   1.0568162340672616     
   1.0513956063170848     
   1.0444594240358029     
   1.0369512814649307     
   1.0293929471581680     
   1.0219781150778109     
   1.0149254960167065     
   1.0081666251435415     
   1.0016813428432274     
  0.99547641540836052     
  0.98949604359145327     
  0.98366909124427826     
  0.97791844838761621     
  0.97218668411471687     
  0.96646756656300803     
  0.96085837413412922     
  0.95563454077291154     
  0.95130913462138289     
  0.94860272123594913     
  0.94974433900260447     
  0.95666980464355256     
  0.97180357151772656     
  0.99689554931388613     
   1.0294463122160500     
   1.0700008648426376     
   1.1026750747713150     
   1.1231010900351948     
   1.1317194585191741     
   1.1233517877832904     
   1.1043153353093351     
   1.0690332623066638     
   1.0159101963794319     
  0.95540525609016536     
  0.89976910866064175     
  0.85026546547537329     
  0.80954738669515580     
  0.77549860999817344     
  0.74664861101467939     
  0.72200339313358675     
  0.70123558006687958     
  0.68444131239780903     
  0.66739629972403891     
  0.69884906588031959     
  0.89591732956978520     
  0.93312061946469982     
  0.93760578683515516     
  0.94542702490981601     
  0.95486311062961216     
  0.96535861373284282     
  0.97651728750789801     
  0.98806933517008533     
   1.0000859788582319     
   1.0123225875459900     
   1.0242963898125195     
   1.0353502920647337     
   1.0443826063197024     
   1.0509036046862046     
   1.0385094393383205     
   1.0466384553760528     
   1.0557799598051938     
   1.0536253017921731     
   1.0491529092882419     
   1.0430074650886962     
   1.0360584293251340     
   1.0289041067492042     
   1.0218314038451326     
   1.0149788096326970     
   1.0084890620124065     
   1.0022078843724695     
  0.99617233395175209     
  0.99034605181300539     
  0.98468037098301642     
  0.97912084025121027     
  0.97363464594078630     
  0.96824234676666865     
  0.96306848059685823     
  0.95841802784861618     
  0.95473063732106278     
  0.95301819981028779     
  0.95529670985249127     
  0.96323679075619739     
  0.97905383032068860     
   1.0035722401397604     
   1.0343928521709567     
   1.0697852699945805     
   1.0968514269949368     
   1.1131125540455755     
   1.1194814652240261     
   1.1121194986730596     
   1.0961182890126600     
   1.0664142400972214     
   1.0217352100796488     
  0.96540032374326412     
  0.91304667491266800     
  0.86398297096965526     
  0.82209822523777343     
  0.78730096802643157     
  0.75752554519867132     
  0.73207186457897777     
  0.71059707739495159     
  0.69316554961431276     
  0.67571589311409708     
  0.71030764450456185     
  0.89773256764247478     
  0.93317594242860658     
  0.93876060029501440     
  0.94676180221232709     
  0.95618904697713447     
  0.96654152505757762     
  0.97747969346212116     
  0.98870798623900358     
   1.0004513591924042     
   1.0121431563874170     
   1.0234509355378683     
   1.0336222362510905     
   1.0415732869400336     
   1.0471249737441319     
   1.0358149636183205     
   1.0434192370001873     
   1.0517889180757189     
   1.0503823782801911     
   1.0467816104298433     
   1.0414145978293086     
   1.0350510083129278     
   1.0283324047337323     
   1.0216173991763222     
   1.0150027765582008     
   1.0087942873621101     
   1.0027246596155686     
  0.99688704657813554     
  0.99124862647639067     
  0.98577856925608176     
  0.98044438613225016     
  0.97523760257405956     
  0.97020489331865600     
  0.96549683379682616     