# vtk DataFile Version 2.0
vtk output
ASCII
DATASET STRUCTURED_GRID
DIMENSIONS       61      49       1
POINTS     2989 double
   1.0000000000000000        0.0000000000000000        0.0000000000000000     
  0.99726094768413698       -5.4705970797181195E-004   0.0000000000000000     
  0.98907380036690296       -2.1732689536559800E-003   0.0000000000000000     
  0.97552825814757704       -4.8340908203384899E-003   0.0000000000000000     
  0.95677272882130004       -8.4565303179428997E-003   0.0000000000000000     
  0.93301270189221897       -1.2940952255126001E-002   0.0000000000000000     
  0.90450849718747395       -1.8163563200134000E-002   0.0000000000000000     
  0.87157241273869701       -2.3979496337882801E-002   0.0000000000000000     
  0.83456530317942901       -3.0226423163382699E-002   0.0000000000000000     
  0.79389262614623601       -3.6728602957406903E-002   0.0000000000000000     
  0.75000000000000000       -4.3301270189222002E-002   0.0000000000000000     
  0.70336832153789997       -4.9755251649282801E-002   0.0000000000000000     
  0.65450849718747395       -5.5901699437494803E-002   0.0000000000000000     
  0.60395584540888003       -6.1556823059825898E-002   0.0000000000000000     
  0.55226423163382699       -6.6546503888493397E-002   0.0000000000000000     
  0.50000000000000000       -7.0710678118654696E-002   0.0000000000000000     
  0.44773576836617301       -7.3907380036690298E-002   0.0000000000000000     
  0.39604415459112002       -7.6016345761910298E-002   0.0000000000000000     
  0.34549150281252600       -7.6942088429381300E-002   0.0000000000000000     
  0.29663167846209998       -7.6616368780508204E-002   0.0000000000000000     
  0.25000000000000000       -7.4999999999999997E-002   0.0000000000000000     
  0.20610737385376299       -7.2083942016734195E-002   0.0000000000000000     
  0.16543469682057099       -6.7889657968547706E-002   0.0000000000000000     
  0.12842758726130299       -6.2468723686683401E-002   0.0000000000000000     
   9.5491502812526302E-002  -5.5901699437494699E-002   0.0000000000000000     
   6.6987298107780605E-002  -4.8296291314453399E-002   0.0000000000000000     
   4.3227271178699601E-002  -3.9784847155511602E-002   0.0000000000000000     
   2.4471741852423200E-002  -3.0521248238988899E-002   0.0000000000000000     
   1.0926199633097201E-002  -2.0677272882130001E-002   0.0000000000000000     
   2.7390523158633598E-003  -1.0438521064158801E-002   0.0000000000000000     
   0.0000000000000000        0.0000000000000000        0.0000000000000000     
   2.7390523158633598E-003   1.0438521064158801E-002   0.0000000000000000     
   1.0926199633097201E-002   2.0677272882130001E-002   0.0000000000000000     
   2.4471741852423200E-002   3.0521248238988899E-002   0.0000000000000000     
   4.3227271178699601E-002   3.9784847155511602E-002   0.0000000000000000     
   6.6987298107780605E-002   4.8296291314453399E-002   0.0000000000000000     
   9.5491502812526302E-002   5.5901699437494699E-002   0.0000000000000000     
  0.12842758726130299        6.2468723686683401E-002   0.0000000000000000     
  0.16543469682057099        6.7889657968547706E-002   0.0000000000000000     
  0.20610737385376299        7.2083942016734195E-002   0.0000000000000000     
  0.25000000000000000        7.4999999999999997E-002   0.0000000000000000     
  0.29663167846209998        7.6616368780508204E-002   0.0000000000000000     
  0.34549150281252600        7.6942088429381300E-002   0.0000000000000000     
  0.39604415459112002        7.6016345761910298E-002   0.0000000000000000     
  0.44773576836617301        7.3907380036690298E-002   0.0000000000000000     
  0.50000000000000000        7.0710678118654696E-002   0.0000000000000000     
  0.55226423163382699        6.6546503888493397E-002   0.0000000000000000     
  0.60395584540888003        6.1556823059825898E-002   0.0000000000000000     
  0.65450849718747395        5.5901699437494803E-002   0.0000000000000000     
  0.70336832153789997        4.9755251649282801E-002   0.0000000000000000     
  0.75000000000000000        4.3301270189222002E-002   0.0000000000000000     
  0.79389262614623601        3.6728602957406903E-002   0.0000000000000000     
  0.83456530317942901        3.0226423163382699E-002   0.0000000000000000     
  0.87157241273869701        2.3979496337882801E-002   0.0000000000000000     
  0.90450849718747395        1.8163563200134000E-002   0.0000000000000000     
  0.93301270189221897        1.2940952255126001E-002   0.0000000000000000     
  0.95677272882130004        8.4565303179428997E-003   0.0000000000000000     
  0.97552825814757704        4.8340908203384899E-003   0.0000000000000000     
  0.98907380036690296        2.1732689536559800E-003   0.0000000000000000     
  0.99726094768413698        5.4705970797181195E-004   0.0000000000000000     
   1.0000000000000000        0.0000000000000000        0.0000000000000000     
   1.0009232791362399       -2.1684043449710098E-019   0.0000000000000000     
  0.99818422682037300       -3.7341886569199501E-003   0.0000000000000000     
  0.98963921013206202       -6.7066220741222099E-003   0.0000000000000000     
  0.97603284118763201       -9.7487924594295006E-003   0.0000000000000000     
  0.95732907036518999       -1.3433532296074800E-002   0.0000000000000000     
  0.93362247389838304       -1.7911237804386901E-002   0.0000000000000000     
  0.90515014004543803       -2.3121251512194001E-002   0.0000000000000000     
  0.87222615642195200       -2.8928581881350099E-002   0.0000000000000000     
  0.83521582384825199       -3.5170667091454701E-002   0.0000000000000000     
  0.79452771870625005       -4.1670630665104798E-002   0.0000000000000000     
  0.75060934006150704       -4.8242879191763802E-002   0.0000000000000000     
  0.70394268365022095       -5.4697667396047901E-002   0.0000000000000000     
  0.65503926580097704       -6.0845707302111703E-002   0.0000000000000000     
  0.60443468143407897       -6.6502823438903000E-002   0.0000000000000000     
  0.55268281487549098       -7.1494520261680905E-002   0.0000000000000000     
  0.50034979946463698       -7.5660329927799697E-002   0.0000000000000000     
  0.44800780604976498       -7.8857820939911893E-002   0.0000000000000000     
  0.39622873127704800       -8.0966158647333100E-002   0.0000000000000000     
  0.34557784938716202       -8.1889117365649106E-002   0.0000000000000000     
  0.29660748257989600       -8.1557449973058194E-002   0.0000000000000000     
  0.24985073150005699       -7.9930520090950696E-002   0.0000000000000000     
  0.20581528380547001       -7.6997083378185102E-002   0.0000000000000000     
  0.16497727516421701       -7.2775039107258493E-002   0.0000000000000000     
  0.12777509594659200       -6.7309780771745098E-002   0.0000000000000000     
   9.4602913057044505E-002  -6.0670235884221303E-002   0.0000000000000000     
   6.5803714309157907E-002  -5.2940309734867200E-002   0.0000000000000000     
   4.1663334149916298E-002  -4.4200886077683799E-002   0.0000000000000000     
   2.2415788746539999E-002  -3.4497878801185697E-002   0.0000000000000000     
   8.2925871673695407E-003  -2.3819084663797101E-002   0.0000000000000000     
  -3.7633439951901399E-004  -1.2197225319231999E-002   0.0000000000000000     
  -3.2746133109073298E-003   0.0000000000000000        0.0000000000000000     
  -3.7633439951901399E-004   1.2197225319231999E-002   0.0000000000000000     
   8.2925871673695407E-003   2.3819084663797101E-002   0.0000000000000000     
   2.2415788746539999E-002   3.4497878801185697E-002   0.0000000000000000     
   4.1663334149916298E-002   4.4200886077683799E-002   0.0000000000000000     
   6.5803714309157907E-002   5.2940309734867200E-002   0.0000000000000000     
   9.4602913057044505E-002   6.0670235884221303E-002   0.0000000000000000     
  0.12777509594659200        6.7309780771745098E-002   0.0000000000000000     
  0.16497727516421701        7.2775039107258493E-002   0.0000000000000000     
  0.20581528380547001        7.6997083378185102E-002   0.0000000000000000     
  0.24985073150005699        7.9930520090950696E-002   0.0000000000000000     
  0.29660748257989600        8.1557449973058194E-002   0.0000000000000000     
  0.34557784938716202        8.1889117365649106E-002   0.0000000000000000     
  0.39622873127704800        8.0966158647333100E-002   0.0000000000000000     
  0.44800780604976498        7.8857820939911893E-002   0.0000000000000000     
  0.50034979946463698        7.5660329927799697E-002   0.0000000000000000     
  0.55268281487549098        7.1494520261680905E-002   0.0000000000000000     
  0.60443468143407897        6.6502823438903000E-002   0.0000000000000000     
  0.65503926580097704        6.0845707302111703E-002   0.0000000000000000     
  0.70394268365022095        5.4697667396047901E-002   0.0000000000000000     
  0.75060934006150704        4.8242879191763802E-002   0.0000000000000000     
  0.79452771870625005        4.1670630665104798E-002   0.0000000000000000     
  0.83521582384825199        3.5170667091454701E-002   0.0000000000000000     
  0.87222615642195200        2.8928581881350099E-002   0.0000000000000000     
  0.90515014004543803        2.3121251512194001E-002   0.0000000000000000     
  0.93362247389838304        1.7911237804386901E-002   0.0000000000000000     
  0.95732907036518999        1.3433532296074800E-002   0.0000000000000000     
  0.97603284118763201        9.7487924594295006E-003   0.0000000000000000     
  0.98963921013206202        6.7066220741222099E-003   0.0000000000000000     
  0.99818422682037300        3.7341886569199501E-003   0.0000000000000000     
   1.0009232791362399       -4.3421283297313602E-019   0.0000000000000000     
   1.0036421271485501       -1.0842021724855000E-018   0.0000000000000000     
   1.0009030748326899       -6.5125293322647803E-003   0.0000000000000000     
[...]
CELL_DATA     2880
SCALARS rho        double 1
LOOKUP_TABLE default
   1.1050585885194359     
   1.0931439269714618     
   1.0761545675637429     
   1.0566379716341634     
   1.0369507565069478     
   1.0178544237872809     
  0.99951287080410522     
  0.98138867793164053     
  0.96326798357919952     
  0.94503135096742164     
  0.92658875324666590     
  0.90794482610064065     
  0.88930983515911222     
  0.87155707777147629     
  0.85949021209473253     
  0.84786008822410319     
  0.74578502927448864     
  0.68425542230887781     
  0.68827626850110923     
  0.69998181766041512     
  0.71487297676219053     
  0.73351768988287125     
  0.75591585286735818     
  0.78334052171103252     
  0.81681342236383192     
  0.85956341331386066     
  0.91942907444630084     
   1.0010021086289429     
   1.1391953191700539     
   1.2789880586513414     
   1.2789880586596860     
   1.1391953191914808     
   1.0010021087157746     
  0.91942907454096601     
  0.85956341339290243     
  0.81681342244077881     
  0.78334052178523450     
  0.75591585295586827     
  0.73351768995939826     
  0.71487297683504269     
  0.69998181773970025     
  0.68827626853742707     
  0.68425542253684790     
  0.74578503056781686     
  0.84786008841079674     
  0.85949021189377928     
  0.87155707770006841     
  0.88930983513178219     
  0.90794482608676308     
  0.92658875323465129     
  0.94503135095224133     
  0.96326798355881105     
  0.98138867790542916     
  0.99951287076759676     
   1.0178544237435125     
   1.0369507564680263     
   1.0566379716143386     
   1.0761545675617046     
   1.0931439269803085     
   1.1050585885392639     
   1.1206904271378644     
   1.0995346639388743     
   1.0851618487555967     
   1.0682221037198860     
   1.0499722509040865     
   1.0316102789111132     
   1.0138768623260290     
  0.99626445236893635     
  0.97852621892375224     
  0.96060665811117818     
  0.94243281394032274     
  0.92402427599963433     
  0.90560233445178695     
  0.88804226388329599     
  0.87621556723294358     
  0.86497068754987738     
  0.76225857182748957     
  0.69995002032237374     
  0.70481328058878867     
  0.71766076837467818     
  0.73409929246092964     
  0.75450052653158528     
  0.77915980386666983     
  0.80965719132184644     
  0.84771352430990332     
  0.89730998236861326     
  0.96579021740118098     
   1.0536804740079453     
   1.1828779731696042     
   1.2848970211236970     
   1.2848970210763910     
   1.1828779731626717     
   1.0536804740854211     
  0.96579021746863680     
  0.89730998242851290     
  0.84771352437414960     
  0.80965719138396341     
  0.77915980393634887     
  0.75450052659239708     
  0.73409929252728634     
  0.71766076844093485     
  0.70481328059287751     
  0.69995002052007083     
  0.76225857309848355     
  0.86497068769916297     
  0.87621556700267289     
  0.88804226378302487     
  0.90560233439279259     
  0.92402427595342251     
  0.94243281389603217     
  0.96060665806359535     
  0.97852621887050084     
  0.99626445230930560     
   1.0138768622530792     
   1.0316102788404586     
   1.0499722508682638     
   1.0682221036904722     
   1.0851618487379437     
   1.0995346639269996     
   1.1206904271354228     
   1.1087434933061135     
   1.1047032108734114     
   1.0938681247006283     
   1.0775175384588609     
   1.0595898373405546     
   1.0414332989912070     
   1.0234308164451920     
   1.0054836600120078     
  0.98736424737954542     
  0.96907539576076895     
  0.95056400157565335     
  0.93185501548993765     
  0.91317478699832511     
  0.89540753477380408     
  0.88345294075597258     
  0.87218107749562057     
  0.76957345465075599     
  0.70725598059752204     
  0.71226948514789790     
  0.72539501986830657     
  0.74223738016382845     
  0.76332608383332590     
  0.78903848930900344     
  0.82109845302615048     
  0.86125564356556095     
  0.91438653016894478     
  0.98674341021585477     
   1.0790975536852903     
   1.1959231368253904     
   1.2760260668866081     
   1.2760260668385262     
   1.1959231368166854     
   1.0790975537589931     
  0.98674341028888524     
  0.91438653024616268     
  0.86125564362949569     
  0.82109845306718610     
  0.78903848935745036     
  0.76332608388985368     
  0.74223738021767938     
  0.72539501993058497     
  0.71226948516728295     
  0.70725598079335794     
  0.76957345592895110     
  0.87218107764210340     
  0.88345294051426204     
  0.89540753467975598     
  0.91317478695284859     
  0.93185501545931404     
  0.95056400154731380     
  0.96907539572879897     
  0.98736424734076456     
   1.0054836599642327     
   1.0234308163818941     
   1.0414332989318491     
   1.0595898372972801     
   1.0775175384272129     
   1.0938681246751476     
   1.1047032108509935     
   1.1087434933114810     
   1.1008167341980930     
   1.1082339814727076     
   1.0973303360545537     
   1.0801088330436817     
   1.0617833218970691     
   1.0434782923904895     
   1.0252836233402900     
   1.0074155761582284     
  0.98934384693098210     
  0.97110959625770343     
  0.95266700781774949     
  0.93404898844360496     
  0.91549088545498569     
  0.89788203444713610     
  0.88604846846242935     
  0.87479688768089259     
  0.77334964888956692     
  0.71136795459983848     
  0.71664787140856234     
  0.73025353503079260     
  0.74772426118894286     
  0.76963545478793183     
  0.79651226856608948     
  0.83014407581334970     
  0.87288951060142694     
  0.92900647443244111     
   1.0026838458461123     
   1.0970507425290392     
   1.1977933048217537     
   1.2604339256036445     
   1.2604339255589039     
   1.1977933048049898     
   1.0970507425820371     
   1.0026838459105456     
  0.92900647450117058     
  0.87288951066911868     
  0.83014407587389583     
  0.79651226860673630     
  0.76963545485204365     
  0.74772426124856783     
  0.73025353510142221     
  0.71664787143337771     
  0.71136795482533943     
  0.77334965016360058     
  0.87479688784558318     
  0.88604846824531625     
  0.89788203435119607     
  0.91549088540644152     
  0.93404898841007611     
  0.95266700778686109     
  0.97110959622383797     
  0.98934384689202914     
   1.0074155761113628     
   1.0252836232784992     
   1.0434782923359174     
   1.0617833218483117     
   1.0801088330023172     
   1.0973303360198283     
   1.1082339814390554     
   1.1008167342059565     
   1.0948003731023312     
   1.1066104209821881     
   1.0954211160009206     
   1.0787219881344285     
   1.0611547210060035     
   1.0434986755994793     
   1.0256835335278482     
   1.0081854199965594     
  0.99039298838452650     
  0.97238415876680317     
  0.95414670008331293     
  0.93572732047166618     
  0.91737274769575339     
  0.89997316050154585     
  0.88821877618391076     
  0.87690729222721653     
  0.77720496651579063     
  0.71555717954240416     
  0.72104947643351880     
  0.73515779454939734     
  0.75330440927478681     
  0.77609554241678236     
  0.80411678987471413     
  0.83936858378228352     
  0.88428619083732984     
  0.94281571970592393     
   1.0154933371051988     
   1.1083498603133068     
   1.1932107966975805     
   1.2435291397039687     
   1.2435291396629509     
   1.1932107966757464     
   1.1083498603434851     
   1.0154933371644903     
  0.94281571976885570     
  0.88428619090558591     
  0.83936858384656854     
  0.80411678992069868     
  0.77609554248310630     
  0.75330440933779796     
  0.73515779462509800     
  0.72104947646441064     
  0.71555717979101319     
  0.77720496777123138     
  0.87690729239178133     
  0.88821877598384469     
  0.89997316041368858     
  0.91737274765408272     
  0.93572732044385087     
  0.95414670005724622     
  0.97238415873683515     
  0.99039298834901557     
   1.0081854199507283     
   1.0256835334698615     
   1.0434986755512248     
   1.0611547209598058     
   1.0787219880915024     
   1.0954211159630469     
   1.1066104209502519     
   1.0948003731076079     
   1.0898410805828527     
   1.1032241025960714     
   1.0923693779039991     
   1.0767951388770174     
   1.0601964306156484     
   1.0432862802000957     
   1.0260093020678973     
   1.0088744319895053     
  0.99143250401156657     
  0.97369080337762270     
  0.95569136209300309     
  0.93749653787866116     
  0.91936868974837671     
  0.90220269181303892     
  0.89048368783839937     
  0.87898415057482737     
  0.78166577939292248     
  0.72034274339198889     
  0.72597703054002583     
  0.74060635016026566     
  0.75946257219834234     
  0.78319239340251068     
  0.81238234687093291     
  0.84920944621710237     
  0.89609892048881834     
  0.95632561095101054     
   1.0268019493750977     
   1.1149133432495086     
   1.1861280322028898     
   1.2267619125024043     
   1.2267619124634053     
   1.1861280321773484     
   1.1149133432616496     
   1.0268019494310479     
  0.95632561100929392     
  0.89609892055398299     
  0.84920944628374739     
  0.81238234692572153     
  0.78319239345511515     
  0.75946257226116265     
  0.74060635023702814     
  0.72597703057317875     
  0.72034274365368112     
  0.78166578062371750     
  0.87898415072794389     
  0.89048368765754871     
  0.90220269173051970     
  0.91936868971101715     
  0.93749653785440235     
  0.95569136206995486     
  0.97369080335002078     
  0.99143250397833038     
   1.0088744319420120     
   1.0260093020144856     
   1.0432862801558795     
   1.0601964305719933     
   1.0767951388358372     
   1.0923693778676711     
   1.1032241025653466     
   1.0898410805844216     
   1.0853393271958423     
   1.0988965676302782     
   1.0887949480592836     
   1.0746182291405628     
   1.0590475325658193     
   1.0428855648712949     
   1.0262341400370705     
   1.0093844450652592     
  0.99232318356647586     
  0.97486023370398700     
  0.95711343542522143     
  0.93915944528351780     
  0.92127809759774226     
  0.90437076331198574     
  0.89263029579946807     
  0.88079499798613037     
  0.78663428151323589     
  0.72569233843074121     
  0.73135860993991153     
  0.74651570533257661     
  0.76609859156458870     
  0.79078462629111823     
  0.82115872655418054     
  0.85949876572720463     
  0.90805966663497428     
  0.96879072102860675     
   1.0373204785629409     
   1.1178494100413472     
   1.1775085592797769     
   1.2106078560205513     
   1.2106078559826485     
   1.1775085592512728     
   1.1178494100418022     
   1.0373204786139145     
  0.96879072108103637     
  0.90805966669466232     
  0.85949876579006967     
  0.82115872661641076     
  0.79078462632769475     
  0.76609859162760452     
  0.74651570540864787     
  0.73135860997309154     
  0.72569233870529970     
  0.78663428271040714     
  0.88079499812008466     
  0.89263029563146323     
  0.90437076322898868     
  0.92127809756002355     
  0.93915944525880291     
  0.95711343540161964     
  0.97486023367557928     
  0.99232318353286997     
   1.0093844450130991     
   1.0262341399874240     
   1.0428855648302162     
   1.0590475325244384     
   1.0746182291015463     
   1.0887949480250523     
   1.0988965675997895     
   1.0853393271942144     
   1.0809874865387852     
   1.0940933322490036     
   1.0849855117488598     
   1.0721694970256976     
   1.0575326653618766     
   1.0420237828105894     
   1.0259771716110009     
   1.0094485363165531     
  0.99286193775931220     
  0.97574472467693052     
  0.95832232847141074     
  0.94068231807962233     
  0.92311119462283986     
  0.90651282823424528     
  0.89467688970386716     
  0.88232383234181311     
  0.79212701118203055     
  0.73165632499672473     
  0.73719422907238141     
  0.75287740824915317     
  0.77319997455355283     
  0.79883983397868974     
  0.83043741391815673     
  0.87021795858623829     
  0.91980344236238842     
  0.97963931641681534     
   1.0467462599166093     
   1.1177657146096167     
   1.1680357933415266     
   1.1951634815312684     
   1.1951634814939149     
   1.1680357933101151     
   1.1177657145977036     
   1.0467462599577753     
  0.97963931646365654     
  0.91980344241403489     
  0.87021795864370965     
  0.83043741398074000     
  0.79883983400390901     
  0.77319997461757783     
  0.75287740832338046     
  0.73719422910446963     
  0.73165632530229119     
  0.79212701234021177     
  0.88232383247164325     
  0.89467688954853197     
  0.90651282815009293     
  0.92311119458317170     
  0.94068231805303504     
  0.95832232844577059     
  0.97574472464631201     
  0.99286193772388764     
   1.0094485362603927     
   1.0259771715641133     
   1.0420237827690788     
   1.0575326653213144     
   1.0721694969881936     
   1.0849855117164864     
   1.0940933322190167     
   1.0809874865345488     
   1.0766578542162621     
   1.0890543501013137     
   1.0810103121496191     
   1.0694527878484041     
   1.0557472572000646     
   1.0409595236760980     
   1.0255323800642502     
   1.0094471657439450     
  0.99337819126590221     
  0.97667714992875143     
  0.95964281350230951     
  0.94236729440093980     
  0.92516032314588137     
  0.90890437209971375     
  0.89688388881349668     
  0.88382811992488874     
  0.79843935329601978     
  0.73866584417947512     
  0.74386853535524455     
  0.76006076744103213     
  0.78113492443004806     
  0.80765651335688271     
  0.84045761384586037     
  0.88137350723335395     
  0.93140580337104373     
  0.98906732864152214     
   1.0542124115262477     
   1.1155241468419197     
   1.1580959770113664     
   1.1804172566050721     
   1.1804172565680262     
   1.1580959769776291     
   1.1155241468259001     
   1.0542124115535139     
  0.98906732868678504     
  0.93140580341657464     
  0.88137350728620956     
  0.84045761390658424     
  0.80765651338020128     
  0.78113492450008892     
  0.76006076751662577     
  0.74386853539027986     
  0.73866584450876538     
  0.79843935440354608     
  0.88382812003481359     
  0.89688388867553082     
  0.90890437202145102     
  0.92516032310862395     
  0.94236729437589262     
  0.95964281347793390     
  0.97667714989896581     
  0.99337819123014504     
   1.0094471656888715     
   1.0255323800211456     
   1.0409595236365601     
   1.0557472571613262     
   1.0694527878125146     
   1.0810103121187544     
   1.0890543500721293     
   1.0766578542099237     
   1.0723104661572791     
   1.0839017551834393     
   1.0768948951097903     
   1.0665416739308142     
   1.0538304563508387     
   1.0398293439960777     
   1.0250448264622749     
   1.0095229817769353     
  0.99393539153121890     
  0.97770540858566246     
  0.96110592721183874     
  0.94424085971796801     
  0.92743328681311910     
  0.91153888371258063     
  0.89926049882521408     
  0.88536832307188651     
  0.80559260087372420     
  0.74689326410227941     
  0.75152763921530941     
  0.76820534470544677     
  0.79009199283427423     
  0.81727187156196779     
  0.85121876220335679     
  0.89296045538056090     
  0.94287000081281780     
  0.99764980665529590     
   1.0594752948186685     
   1.1120393080643047     
   1.1479407950917033     
   1.1663228444122269     
   1.1663228443754026     
   1.1479407950559202     
   1.1120393080446416     
   1.0594752948311681     
  0.99764980670077963     
  0.94287000085382111     
  0.89296045542923297     
  0.85121876226028492     
  0.81727187159946313     
  0.79009199289789811     
  0.76820534478188718     
  0.75152763925432720     
  0.74689326445893178     
  0.80559260191986926     
  0.88536832319594938     
  0.89926049869947311     
  0.91153888364088054     
  0.92743328677766046     
  0.94424085969384064     
  0.96110592718806664     
  0.97770540855653165     
  0.99393539149303167     
   1.0095229817257159     
   1.0250448264233498     
   1.0398293439591704     
   1.0538304563145198     
   1.0665416738969589     
   1.0768948950804607     
   1.0839017551552479     
   1.0723104661492102     
   1.0679405266279438     
   1.0787001201161346     
   1.0726673200207151     
   1.0635015985561673     
   1.0518423389051881     
   1.0386601429636606     
   1.0245263855795930     
   1.0096349959511359     
  0.99447568440805489     
  0.97877264982680168     
  0.96264457750328725     
  0.94622968886028080     
  0.92985942096153740     
  0.91433723186402782     
  0.90172302370168411     
  0.88682412615097861     
  0.81347823234051675     
  0.75638946768829829     
  0.76016359568593839     
  0.77720501497649619     
  0.79981622493312432     
  0.82770850098086124     
  0.86258845403198869     
  0.90476133237086243     
  0.95383330264068189     
   1.0056792189618400     
   1.0625601644550244     
   1.1075768033427240     
   1.1377164085052360     
   1.1528415693258041     
   1.1528415692892378     
   1.1377164084678679     
   1.1075768033199860     
   1.0625601644555744     
   1.0056792190050681     
  0.95383330267888766     
  0.90476133241456624     
  0.86258845408338480     
  0.82770850103430516     
  0.79981622497044469     
  0.77720501504789163     
  0.76016359572818937     
  0.75638946807905205     
  0.81347823332673919     
  0.88682412627340679     
  0.90172302359382950     
  0.91433723180046700     
  0.92985942092866281     
  0.94622968883768177     
  0.96264457748049803     
  0.97877264979931278     
  0.99447568436633038     
   1.0096349959058226     
   1.0245263855439457     
   1.0386601429291764     
   1.0518423388713538     
   1.0635015985245984     
   1.0726673199930989     
   1.0787001200890216     
   1.0679405266184137     
   1.0635563416141809     
   1.0734908700091439     
   1.0683579022382124     
   1.0603540468755257     
   1.0497570953182800     
   1.0373954419017239     
   1.0239168687612432     
   1.0096643432880228     
  0.99489440759301284     
  0.97977418289647911     
  0.96415796936437848     
  0.94827169272182144     
  0.93240840916426482     
  0.91726809569683077     
  0.90426622429289383     
  0.88826686473349481     
  0.82207740961360831     
  0.76738145493855958     
  0.76982598145818515     
  0.78705763121181194     
  0.81026576991282417     
  0.83893978755218312     
  0.87439370561911467     
  0.91647923237612527     
  0.96381903161533689     
   1.0132558508578471     
   1.0639091771343634     
   1.1023738160333214     
   1.1275255066636400     
   1.1399477566498177     
   1.1399477566135972     
   1.1275255066251380     
   1.1023738160077670     
   1.0639091771281752     
   1.0132558508951803     
  0.96381903165160498     
  0.91647923241351925     
  0.87439370566449370     
  0.83893978760871368     
  0.81026576993224908     
  0.78705763127991446     
  0.76982598150485182     
  0.76738145538377311     
  0.82207741051510719     
  0.88826686484674122     
  0.90426622420910385     
  0.91726809564168665     
  0.93240840913320389     
  0.94827169269910916     
  0.96415796934044395     
  0.97977418286978324     
  0.99489440754732450     
   1.0096643432475187     
   1.0239168687274793     
   1.0373954418690965     
   1.0497570952866864     
   1.0603540468463013     
   1.0683579022124985     
   1.0734908699831136     
   1.0635563416034017     
   1.0591721372521712     
   1.0683076305298991     
   1.0639921225073747     
   1.0570905157553183     
   1.0475345032554537     
   1.0360135461381845     
   1.0232297684215585     
   1.0096131924478617     
  0.99528702487952636     
  0.98079566633484583     
  0.96574297089531447     
  0.95040216018538404     
  0.93506648518292712     
  0.92030524027356586     
  0.90690112759023345     
  0.88988886115101895     
  0.83128430554411159     
  0.77965921739520205     